<?xml version="1.0" encoding="ISO-8859-1"?>
<modeling>
 <generator>
  <i name="program" type="string">vasp </i>
  <i name="version" type="string">6.1.2  </i>
  <i name="subversion" type="string">22Jul20 (build Nov  4 2022 18:23:20) complex                          parallel </i>
  <i name="platform" type="string">LinuxPGI </i>
  <i name="date" type="string">2024 01 30 </i>
  <i name="time" type="string">23:11:54 </i>
 </generator>
 <incar>
  <i type="int" name="IBRION">    -1</i>
  <i name="EDIFFG">     -0.03000000</i>
  <i type="int" name="NSW">     0</i>
  <i type="int" name="ISIF">     0</i>
  <i type="int" name="ISYM">     0</i>
  <i name="SYMPREC">      0.00000000</i>
  <i name="ENCUT">    350.00000000</i>
  <i type="string" name="LREAL"> Auto</i>
  <i type="logical" name="LWAVE"> F  </i>
  <i type="int" name="NCORE">     4</i>
  <i type="logical" name="LAECHG"> T  </i>
  <i type="string" name="GGA"> RP</i>
 </incar>
 <structure name="primitive_cell" >
  <crystal>
   <varray name="basis" >
    <v>       8.46376883       0.00000000      -0.00000000 </v>
    <v>      -4.23188442       7.32983882       0.00000000 </v>
    <v>       0.00000000       0.00000000      34.55319157 </v>
   </varray>
   <i name="volume">   2143.61301901 </i>
   <varray name="rec_basis" >
    <v>       0.11815067       0.06821432      -0.00000000 </v>
    <v>      -0.00000000       0.13642865       0.00000000 </v>
    <v>       0.00000000       0.00000000       0.02894089 </v>
   </varray>
  </crystal>
  <varray name="positions" >
   <v>       0.11111111       0.22222222       0.33333333 </v>
   <v>       0.00000000       0.00000000       0.46666667 </v>
   <v>       0.22222222       0.11111111       0.40000000 </v>
   <v>       0.11111111       0.22222222       0.53333333 </v>
   <v>       0.32507847       0.00716811       0.66816773 </v>
   <v>       0.22222222       0.11111111       0.60000000 </v>
   <v>       0.11111111       0.55555556       0.33333333 </v>
   <v>       0.00000000       0.33333333       0.46666667 </v>
   <v>       0.22222222       0.44444444       0.40000000 </v>
   <v>       0.11111111       0.55555556       0.53333333 </v>
   <v>       0.33199322       0.33221874       0.66724897 </v>
   <v>       0.22222222       0.44444444       0.60000000 </v>
   <v>       0.11111111       0.88888889       0.33333333 </v>
   <v>       0.00000000       0.66666667       0.46666667 </v>
   <v>       0.22222222       0.77777778       0.40000000 </v>
   <v>       0.11111111       0.88888889       0.53333333 </v>
   <v>       0.32477028       0.65091246       0.66815240 </v>
   <v>       0.22222222       0.77777778       0.60000000 </v>
   <v>       0.44444444       0.22222222       0.33333333 </v>
   <v>       0.33333333       0.00000000       0.46666667 </v>
   <v>       0.55555556       0.11111111       0.40000000 </v>
   <v>       0.44444444       0.22222222       0.53333333 </v>
   <v>       0.68099699       0.00700706       0.66828216 </v>
   <v>       0.55555556       0.11111111       0.60000000 </v>
   <v>       0.44444444       0.55555556       0.33333333 </v>
   <v>       0.33333333       0.33333333       0.46666667 </v>
   <v>       0.55555556       0.44444444       0.40000000 </v>
   <v>       0.44444444       0.55555556       0.53333333 </v>
   <v>       0.66764340       0.33672144       0.66706230 </v>
   <v>       0.55555556       0.44444444       0.60000000 </v>
   <v>       0.44444444       0.88888889       0.33333333 </v>
   <v>       0.33333333       0.66666667       0.46666667 </v>
   <v>       0.55555556       0.77777778       0.40000000 </v>
   <v>       0.44444444       0.88888889       0.53333333 </v>
   <v>       0.66807251       0.66416037       0.66705983 </v>
   <v>       0.55555556       0.77777778       0.60000000 </v>
   <v>       0.77777778       0.22222222       0.33333333 </v>
   <v>       0.66666667       0.00000000       0.46666667 </v>
   <v>       0.88888889       0.11111111       0.40000000 </v>
   <v>       0.77777778       0.22222222       0.53333333 </v>
   <v>       0.99908838       0.99998620       0.66725833 </v>
   <v>       0.88888889       0.11111111       0.60000000 </v>
   <v>       0.77777778       0.55555556       0.33333333 </v>
   <v>       0.66666667       0.33333333       0.46666667 </v>
   <v>       0.88888889       0.44444444       0.40000000 </v>
   <v>       0.77777778       0.55555556       0.53333333 </v>
   <v>       0.99959767       0.33279281       0.66720646 </v>
   <v>       0.88888889       0.44444444       0.60000000 </v>
   <v>       0.77777778       0.88888889       0.33333333 </v>
   <v>       0.66666667       0.66666667       0.46666667 </v>
   <v>       0.88888889       0.77777778       0.40000000 </v>
   <v>       0.77777778       0.88888889       0.53333333 </v>
   <v>       0.99503181       0.66383501       0.66708210 </v>
   <v>       0.88888889       0.77777778       0.60000000 </v>
   <v>       0.44353292       0.88815002       0.69941425 </v>
  </varray>
 </structure>
 <varray name="primitive_index" >
  <v type="int" >        1 </v>
  <v type="int" >        2 </v>
  <v type="int" >        3 </v>
  <v type="int" >        4 </v>
  <v type="int" >        5 </v>
  <v type="int" >        6 </v>
  <v type="int" >        7 </v>
  <v type="int" >        8 </v>
  <v type="int" >        9 </v>
  <v type="int" >       10 </v>
  <v type="int" >       11 </v>
  <v type="int" >       12 </v>
  <v type="int" >       13 </v>
  <v type="int" >       14 </v>
  <v type="int" >       15 </v>
  <v type="int" >       16 </v>
  <v type="int" >       17 </v>
  <v type="int" >       18 </v>
  <v type="int" >       19 </v>
  <v type="int" >       20 </v>
  <v type="int" >       21 </v>
  <v type="int" >       22 </v>
  <v type="int" >       23 </v>
  <v type="int" >       24 </v>
  <v type="int" >       25 </v>
  <v type="int" >       26 </v>
  <v type="int" >       27 </v>
  <v type="int" >       28 </v>
  <v type="int" >       29 </v>
  <v type="int" >       30 </v>
  <v type="int" >       31 </v>
  <v type="int" >       32 </v>
  <v type="int" >       33 </v>
  <v type="int" >       34 </v>
  <v type="int" >       35 </v>
  <v type="int" >       36 </v>
  <v type="int" >       37 </v>
  <v type="int" >       38 </v>
  <v type="int" >       39 </v>
  <v type="int" >       40 </v>
  <v type="int" >       41 </v>
  <v type="int" >       42 </v>
  <v type="int" >       43 </v>
  <v type="int" >       44 </v>
  <v type="int" >       45 </v>
  <v type="int" >       46 </v>
  <v type="int" >       47 </v>
  <v type="int" >       48 </v>
  <v type="int" >       49 </v>
  <v type="int" >       50 </v>
  <v type="int" >       51 </v>
  <v type="int" >       52 </v>
  <v type="int" >       53 </v>
  <v type="int" >       54 </v>
  <v type="int" >       55 </v>
 </varray>
 <kpoints>
  <generation param="Monkhorst-Pack">
   <v type="int" name="divisions">       5        5        1 </v>
   <v name="usershift">      0.00000000       0.00000000       0.00000000 </v>
   <v name="genvec1">      0.20000000       0.00000000       0.00000000 </v>
   <v name="genvec2">      0.00000000       0.20000000       0.00000000 </v>
   <v name="genvec3">      0.00000000       0.00000000       1.00000000 </v>
   <v name="shift">      0.00000000       0.00000000       0.00000000 </v>
  </generation>
  <varray name="kpointlist" >
   <v>       0.00000000       0.00000000       0.00000000 </v>
   <v>       0.20000000       0.00000000       0.00000000 </v>
   <v>       0.20000000      -0.20000000       0.00000000 </v>
   <v>       0.00000000      -0.20000000       0.00000000 </v>
   <v>       0.40000000       0.00000000       0.00000000 </v>
   <v>       0.40000000      -0.40000000       0.00000000 </v>
   <v>       0.00000000      -0.40000000       0.00000000 </v>
   <v>       0.20000000       0.20000000       0.00000000 </v>
   <v>       0.40000000      -0.20000000       0.00000000 </v>
   <v>       0.20000000      -0.40000000       0.00000000 </v>
   <v>       0.40000000       0.20000000       0.00000000 </v>
   <v>      -0.40000000      -0.40000000       0.00000000 </v>
   <v>       0.20000000       0.40000000       0.00000000 </v>
  </varray>
  <varray name="weights" >
   <v>       0.04000000 </v>
   <v>       0.08000000 </v>
   <v>       0.08000000 </v>
   <v>       0.08000000 </v>
   <v>       0.08000000 </v>
   <v>       0.08000000 </v>
   <v>       0.08000000 </v>
   <v>       0.08000000 </v>
   <v>       0.08000000 </v>
   <v>       0.08000000 </v>
   <v>       0.08000000 </v>
   <v>       0.08000000 </v>
   <v>       0.08000000 </v>
  </varray>
 </kpoints>
 <parameters>
  <separator name="general" >
   <i type="string" name="SYSTEM">unknown system</i>
   <i type="logical" name="LCOMPAT"> F  </i>
  </separator>
  <separator name="electronic" >
   <i type="string" name="PREC">normal</i>
   <i name="ENMAX">    350.00000000</i>
   <i name="ENAUG">    605.39200000</i>
   <i name="EDIFF">      0.00010000</i>
   <i type="int" name="IALGO">    38</i>
   <i type="int" name="IWAVPR">    10</i>
   <i type="int" name="NBANDS">   328</i>
   <i type="int" name="NBANDSLOW">    -1</i>
   <i type="int" name="NBANDSHIGH">    -1</i>
   <i name="NELECT">    546.00000000</i>
   <i type="int" name="TURBO">     0</i>
   <i type="int" name="IRESTART">     0</i>
   <i type="int" name="NREBOOT">     0</i>
   <i type="int" name="NMIN">     0</i>
   <i name="EREF">      0.00000000</i>
   <separator name="electronic smearing" >
    <i type="int" name="ISMEAR">     1</i>
    <i name="SIGMA">      0.20000000</i>
    <i name="KSPACING">      0.50000000</i>
    <i type="logical" name="KGAMMA"> T  </i>
    <i type="logical" name="KBLOWUP"> T  </i>
   </separator>
   <separator name="electronic projectors" >
    <i type="logical" name="LREAL"> T  </i>
    <v name="ROPT">     -0.00050000     -0.00050000</v>
    <i type="int" name="LMAXPAW">  -100</i>
    <i type="int" name="LMAXMIX">     2</i>
    <i type="logical" name="NLSPLINE"> F  </i>
   </separator>
   <separator name="electronic startup" >
    <i type="int" name="ISTART">     0</i>
    <i type="int" name="ICHARG">     2</i>
    <i type="int" name="INIWAV">     1</i>
   </separator>
   <separator name="electronic spin" >
    <i type="int" name="ISPIN">     1</i>
    <i type="logical" name="LNONCOLLINEAR"> F  </i>
    <v name="MAGMOM">      1.00000000      1.00000000      1.00000000      1.00000000      1.00000000      1.00000000      1.00000000      1.00000000      1.00000000      1.00000000      1.00000000      1.00000000      1.00000000      1.00000000      1.00000000      1.00000000      1.00000000      1.00000000      1.00000000      1.00000000
      1.00000000      1.00000000      1.00000000      1.00000000      1.00000000      1.00000000      1.00000000      1.00000000      1.00000000      1.00000000      1.00000000      1.00000000      1.00000000      1.00000000      1.00000000      1.00000000      1.00000000      1.00000000      1.00000000      1.00000000
      1.00000000      1.00000000      1.00000000      1.00000000      1.00000000      1.00000000      1.00000000      1.00000000      1.00000000      1.00000000      1.00000000      1.00000000      1.00000000      1.00000000      1.00000000</v>
    <i name="NUPDOWN">     -1.00000000</i>
    <i type="logical" name="LSORBIT"> F  </i>
    <v name="SAXIS">      0.00000000      0.00000000      1.00000000</v>
    <i type="logical" name="LSPIRAL"> F  </i>
    <v name="QSPIRAL">      0.00000000      0.00000000      0.00000000</v>
    <i type="logical" name="LZEROZ"> F  </i>
   </separator>
   <separator name="electronic exchange-correlation" >
    <i type="logical" name="LASPH"> F  </i>
    <i type="logical" name="LMETAGGA"> F  </i>
   </separator>
   <separator name="electronic convergence" >
    <i type="int" name="NELM">    60</i>
    <i type="int" name="NELMDL">     0</i>
    <i type="int" name="NELMIN">     2</i>
    <i name="ENINI">    350.00000000</i>
    <separator name="electronic convergence detail" >
     <i type="logical" name="LDIAG"> T  </i>
     <i type="logical" name="LSUBROT"> F  </i>
     <i name="WEIMIN">      0.00000000</i>
     <i name="EBREAK">      0.00000008</i>
     <i name="DEPER">      0.30000000</i>
     <i type="int" name="NRMM">     4</i>
     <i name="TIME">      0.40000000</i>
    </separator>
   </separator>
   <separator name="electronic mixer" >
    <i name="AMIX">      0.40000000</i>
    <i name="BMIX">      1.00000000</i>
    <i name="AMIN">      0.10000000</i>
    <i name="AMIX_MAG">      1.60000000</i>
    <i name="BMIX_MAG">      1.00000000</i>
    <separator name="electronic mixer details" >
     <i type="int" name="IMIX">     4</i>
     <i type="logical" name="MIXFIRST"> F  </i>
     <i type="int" name="MAXMIX">   -45</i>
     <i name="WC">    100.00000000</i>
     <i type="int" name="INIMIX">     1</i>
     <i type="int" name="MIXPRE">     1</i>
     <i type="int" name="MREMOVE">     5</i>
    </separator>
   </separator>
   <separator name="electronic dipolcorrection" >
    <i type="logical" name="LDIPOL"> F  </i>
    <i type="logical" name="LMONO"> F  </i>
    <i type="int" name="IDIPOL">     0</i>
    <i name="EPSILON">      1.00000000</i>
    <v name="DIPOL">   -100.00000000   -100.00000000   -100.00000000</v>
    <i name="EFIELD">      0.00000000</i>
   </separator>
  </separator>
  <separator name="grids" >
   <i type="int" name="NGX">    40</i>
   <i type="int" name="NGY">    40</i>
   <i type="int" name="NGZ">   160</i>
   <i type="int" name="NGXF">    80</i>
   <i type="int" name="NGYF">    80</i>
   <i type="int" name="NGZF">   320</i>
   <i type="logical" name="ADDGRID"> F  </i>
  </separator>
  <separator name="ionic" >
   <i type="int" name="NSW">     0</i>
   <i type="int" name="IBRION">    -1</i>
   <i type="int" name="MDALGO">     0</i>
   <i type="int" name="ISIF">     0</i>
   <i name="PSTRESS">      0.00000000</i>
   <i name="EDIFFG">     -0.03000000</i>
   <i type="int" name="NFREE">     0</i>
   <i name="POTIM">      0.50000000</i>
   <i name="SMASS">     -3.00000000</i>
   <i name="SCALEE">      1.00000000</i>
  </separator>
  <separator name="ionic md" >
   <i name="TEBEG">      0.00010000</i>
   <i name="TEEND">      0.00010000</i>
   <i type="int" name="NBLOCK">     1</i>
   <i type="int" name="KBLOCK">     1</i>
   <i type="int" name="NPACO">   256</i>
   <i name="APACO">     16.00000000</i>
  </separator>
  <separator name="symmetry" >
   <i type="int" name="ISYM">     0</i>
   <i name="SYMPREC">      0.00000000</i>
  </separator>
  <separator name="dos" >
   <i type="int" name="LORBIT">     0</i>
   <v name="RWIGS">     -1.00000000     -1.00000000</v>
   <i type="int" name="NEDOS">   301</i>
   <i name="EMIN">     10.00000000</i>
   <i name="EMAX">    -10.00000000</i>
   <i name="EFERMI">      0.00000000</i>
  </separator>
  <separator name="writing" >
   <i type="int" name="NWRITE">     2</i>
   <i type="logical" name="LWAVE"> F  </i>
   <i type="logical" name="LDOWNSAMPLE"> F  </i>
   <i type="logical" name="LCHARG"> T  </i>
   <i type="logical" name="LPARD"> F  </i>
   <i type="logical" name="LVTOT"> F  </i>
   <i type="logical" name="LVHAR"> F  </i>
   <i type="logical" name="LELF"> F  </i>
   <i type="logical" name="LOPTICS"> F  </i>
   <v name="STM">      0.00000000      0.00000000      0.00000000      0.00000000      0.00000000      0.00000000      0.00000000</v>
  </separator>
  <separator name="performance" >
   <i type="int" name="NPAR">     2</i>
   <i type="int" name="NSIM">     4</i>
   <i type="int" name="NBLK">    -1</i>
   <i type="logical" name="LPLANE"> T  </i>
   <i type="logical" name="LSCALAPACK"> T  </i>
   <i type="logical" name="LSCAAWARE"> F  </i>
   <i type="logical" name="LSCALU"> F  </i>
   <i type="logical" name="LASYNC"> F  </i>
   <i type="logical" name="LORBITALREAL"> F  </i>
  </separator>
  <separator name="miscellaneous" >
   <i type="int" name="IDIOT">     3</i>
   <i type="int" name="PHON_NSTRUCT">    -1</i>
   <i type="logical" name="LMUSIC"> F  </i>
   <v name="POMASS">    195.08000000     16.00000000</v>
   <v name="DARWINR">      0.00000000      0.00000000</v>
   <v name="DARWINV">      1.00000000      1.00000000</v>
   <i type="logical" name="LCORR"> T  </i>
  </separator>
  <i type="logical" name="GGA_COMPAT"> T  </i>
  <i type="logical" name="LBERRY"> F  </i>
  <i type="int" name="ICORELEVEL">     0</i>
  <i type="logical" name="LDAU"> F  </i>
  <i type="int" name="I_CONSTRAINED_M">     0</i>
  <separator name="electronic exchange-correlation" >
   <i type="string" name="GGA">RP</i>
   <i type="int" name="VOSKOWN">     0</i>
   <i type="logical" name="LHFCALC"> F  </i>
   <i type="string" name="PRECFOCK"></i>
   <i type="logical" name="LSYMGRAD"> F  </i>
   <i type="logical" name="LHFONE"> F  </i>
   <i type="logical" name="LRHFCALC"> F  </i>
   <i type="logical" name="LTHOMAS"> F  </i>
   <i type="logical" name="LMODELHF"> F  </i>
   <i type="logical" name="LFOCKACE"> F  </i>
   <i name="ENCUT4O">     -1.00000000</i>
   <i type="int" name="EXXOEP">     0</i>
   <i type="int" name="FOURORBIT">     0</i>
   <i name="AEXX">      0.00000000</i>
   <i name="HFALPHA">      0.00000000</i>
   <i name="MCALPHA">      0.00000000</i>
   <i name="ALDAX">      1.00000000</i>
   <i name="AGGAX">      1.00000000</i>
   <i name="ALDAC">      1.00000000</i>
   <i name="AGGAC">      1.00000000</i>
   <i type="int" name="NKREDX">     1</i>
   <i type="int" name="NKREDY">     1</i>
   <i type="int" name="NKREDZ">     1</i>
   <i type="logical" name="SHIFTRED"> F  </i>
   <i type="logical" name="ODDONLY"> F  </i>
   <i type="logical" name="EVENONLY"> F  </i>
   <i type="int" name="LMAXFOCK">     0</i>
   <i type="int" name="NMAXFOCKAE">     0</i>
   <i type="logical" name="LFOCKAEDFT"> F  </i>
   <i name="HFSCREEN">      0.00000000</i>
   <i name="HFSCREENC">      0.00000000</i>
   <i type="int" name="NBANDSGWLOW">     0</i>
  </separator>
  <separator name="vdW DFT" >
   <i type="logical" name="LUSE_VDW"> F  </i>
   <i name="Zab_VDW">     -0.84910000</i>
   <i name="PARAM1">      0.12340000</i>
   <i name="PARAM2">      1.00000000</i>
   <i name="PARAM3">      0.00000000</i>
  </separator>
  <separator name="model GW" >
   <i type="int" name="MODEL_GW">     0</i>
   <i name="MODEL_EPS0">     23.38486930</i>
   <i name="MODEL_ALPHA">      1.00000000</i>
  </separator>
  <separator name="linear response parameters" >
   <i type="logical" name="LEPSILON"> F  </i>
   <i type="logical" name="LRPA"> F  </i>
   <i type="logical" name="LNABLA"> F  </i>
   <i type="logical" name="LVEL"> F  </i>
   <i type="int" name="KINTER">     0</i>
   <i name="CSHIFT">      0.10000000</i>
   <i name="OMEGAMAX">     -1.00000000</i>
   <i name="DEG_THRESHOLD">      0.00200000</i>
   <i name="RTIME">     -0.10000000</i>
   <i name="WPLASMAI">      0.00000000</i>
   <v name="DFIELD">      0.00000000      0.00000000      0.00000000</v>
   <v name="WPLASMA">      0.00000000      0.00000000      0.00000000      0.00000000      0.00000000      0.00000000      0.00000000      0.00000000      0.00000000</v>
  </separator>
  <separator name="orbital magnetization" >
   <i type="logical" name="NUCIND"> F  </i>
   <v name="MAGPOS">      0.00000000      0.00000000      0.00000000</v>
   <i type="logical" name="LNICSALL"> T  </i>
   <i type="logical" name="ORBITALMAG"> F  </i>
   <i type="logical" name="LMAGBLOCH"> F  </i>
   <i type="logical" name="LCHIMAG"> F  </i>
   <i type="logical" name="LGAUGE"> T  </i>
   <i type="int" name="MAGATOM">     0</i>
   <v name="MAGDIPOL">      0.00000000      0.00000000      0.00000000</v>
   <v name="AVECCONST">      0.00000000      0.00000000      0.00000000</v>
  </separator>
  <separator name="response functions" >
   <i type="logical" name="LFINITE_TEMPERATURE"> F  </i>
   <i type="logical" name="LADDER"> F  </i>
   <i type="logical" name="LRPAFORCE"> F  </i>
   <i type="logical" name="LFXC"> F  </i>
   <i type="logical" name="LHARTREE"> T  </i>
   <i type="int" name="IBSE">     0</i>
   <v type="int" name="KPOINT">    -1     0     0     0</v>
   <i type="logical" name="LTCTC"> F  </i>
   <i type="logical" name="LTCTE"> F  </i>
   <i type="logical" name="LTETE"> F  </i>
   <i type="logical" name="LTRIPLET"> F  </i>
   <i type="logical" name="LFXCEPS"> F  </i>
   <i type="logical" name="LFXHEG"> F  </i>
   <i type="int" name="NATURALO">     2</i>
   <i type="logical" name="LHOLEGF"> F  </i>
   <i type="logical" name="L2ORDER"> F  </i>
   <i type="logical" name="LDMP1"> F  </i>
   <i type="logical" name="LMP2LT"> F  </i>
   <i type="logical" name="LSMP2LT"> F  </i>
   <i type="logical" name="LGWLF"> F  </i>
   <i name="ENCUTGW">     -2.00000000</i>
   <i name="ENCUTGWSOFT">     -2.00000000</i>
   <i name="ENCUTLF">     -1.00000000</i>
   <i type="logical" name="LESF_SPLINES"> F  </i>
   <i type="int" name="LMAXMP2">    -1</i>
   <i name="SCISSOR">      0.00000000</i>
   <i type="int" name="NOMEGA">     0</i>
   <i type="int" name="NOMEGAR">     0</i>
   <i type="int" name="NBANDSGW">    -1</i>
   <i type="int" name="NBANDSO">    -1</i>
   <i type="int" name="NBANDSV">    -1</i>
   <i type="int" name="NELM">     1</i>
   <i type="int" name="NELMHF">     1</i>
   <i type="int" name="DIM">     3</i>
   <i type="int" name="IESPILON">     4</i>
   <i type="int" name="ANTIRES">     0</i>
   <i name="OMEGAMAX">    -30.00000000</i>
   <i name="OMEGAMIN">    -30.00000000</i>
   <i name="OMEGATL">   -200.00000000</i>
   <i type="int" name="OMEGAGRID">     0</i>
   <i name="CSHIFT">     -0.10000000</i>
   <i type="logical" name="LSELFENERGY"> F  </i>
   <i type="logical" name="LSPECTRAL"> F  </i>
   <i type="logical" name="LSPECTRALGW"> F  </i>
   <i type="logical" name="LSINGLES"> F  </i>
   <i type="logical" name="LFERMIGW"> F  </i>
   <i type="logical" name="ODDONLYGW"> F  </i>
   <i type="logical" name="EVENONLYGW"> F  </i>
   <i type="int" name="NKREDLFX">     1</i>
   <i type="int" name="NKREDLFY">     1</i>
   <i type="int" name="NKREDLFZ">     1</i>
   <i type="int" name="MAXMEM">  2800</i>
   <i type="int" name="TELESCOPE">     0</i>
   <i type="int" name="NTAUPAR">    -1</i>
   <i type="int" name="NOMEGAPAR">    -1</i>
   <i name="LAMBDA">      1.00000000</i>
  </separator>
  <separator name="External order field" >
   <i name="OFIELD_KAPPA">      0.00000000</i>
   <v name="OFIELD_K">      0.00000000      0.00000000      0.00000000</v>
   <i name="OFIELD_Q6_NEAR">      0.00000000</i>
   <i name="OFIELD_Q6_FAR">      0.00000000</i>
   <i name="OFIELD_A">      0.00000000</i>
  </separator>
 </parameters>
 <atominfo>
  <atoms>      55 </atoms>
  <types>       2 </types>
  <array name="atoms" >
   <dimension dim="1">ion</dimension>
   <field type="string">element</field>
   <field type="int">atomtype</field>
   <set>
    <rc><c>Pt</c><c>   1</c></rc>
    <rc><c>Pt</c><c>   1</c></rc>
    <rc><c>Pt</c><c>   1</c></rc>
    <rc><c>Pt</c><c>   1</c></rc>
    <rc><c>Pt</c><c>   1</c></rc>
    <rc><c>Pt</c><c>   1</c></rc>
    <rc><c>Pt</c><c>   1</c></rc>
    <rc><c>Pt</c><c>   1</c></rc>
    <rc><c>Pt</c><c>   1</c></rc>
    <rc><c>Pt</c><c>   1</c></rc>
    <rc><c>Pt</c><c>   1</c></rc>
    <rc><c>Pt</c><c>   1</c></rc>
    <rc><c>Pt</c><c>   1</c></rc>
    <rc><c>Pt</c><c>   1</c></rc>
    <rc><c>Pt</c><c>   1</c></rc>
    <rc><c>Pt</c><c>   1</c></rc>
    <rc><c>Pt</c><c>   1</c></rc>
    <rc><c>Pt</c><c>   1</c></rc>
    <rc><c>Pt</c><c>   1</c></rc>
    <rc><c>Pt</c><c>   1</c></rc>
    <rc><c>Pt</c><c>   1</c></rc>
    <rc><c>Pt</c><c>   1</c></rc>
    <rc><c>Pt</c><c>   1</c></rc>
    <rc><c>Pt</c><c>   1</c></rc>
    <rc><c>Pt</c><c>   1</c></rc>
    <rc><c>Pt</c><c>   1</c></rc>
    <rc><c>Pt</c><c>   1</c></rc>
    <rc><c>Pt</c><c>   1</c></rc>
    <rc><c>Pt</c><c>   1</c></rc>
    <rc><c>Pt</c><c>   1</c></rc>
    <rc><c>Pt</c><c>   1</c></rc>
    <rc><c>Pt</c><c>   1</c></rc>
    <rc><c>Pt</c><c>   1</c></rc>
    <rc><c>Pt</c><c>   1</c></rc>
    <rc><c>Pt</c><c>   1</c></rc>
    <rc><c>Pt</c><c>   1</c></rc>
    <rc><c>Pt</c><c>   1</c></rc>
    <rc><c>Pt</c><c>   1</c></rc>
    <rc><c>Pt</c><c>   1</c></rc>
    <rc><c>Pt</c><c>   1</c></rc>
    <rc><c>Pt</c><c>   1</c></rc>
    <rc><c>Pt</c><c>   1</c></rc>
    <rc><c>Pt</c><c>   1</c></rc>
    <rc><c>Pt</c><c>   1</c></rc>
    <rc><c>Pt</c><c>   1</c></rc>
    <rc><c>Pt</c><c>   1</c></rc>
    <rc><c>Pt</c><c>   1</c></rc>
    <rc><c>Pt</c><c>   1</c></rc>
    <rc><c>Pt</c><c>   1</c></rc>
    <rc><c>Pt</c><c>   1</c></rc>
    <rc><c>Pt</c><c>   1</c></rc>
    <rc><c>Pt</c><c>   1</c></rc>
    <rc><c>Pt</c><c>   1</c></rc>
    <rc><c>Pt</c><c>   1</c></rc>
    <rc><c>O </c><c>   2</c></rc>
   </set>
  </array>
  <array name="atomtypes" >
   <dimension dim="1">type</dimension>
   <field type="int">atomspertype</field>
   <field type="string">element</field>
   <field>mass</field>
   <field>valence</field>
   <field type="string">pseudopotential</field>
   <set>
    <rc><c>  54</c><c>Pt</c><c>    195.08000000</c><c>     10.00000000</c><c>  PAW_PBE Pt 04Feb2005                  </c></rc>
    <rc><c>   1</c><c>O </c><c>     16.00000000</c><c>      6.00000000</c><c>  PAW_PBE O 08Apr2002                   </c></rc>
   </set>
  </array>
 </atominfo>
 <structure name="initialpos" >
  <crystal>
   <varray name="basis" >
    <v>       8.46376883       0.00000000      -0.00000000 </v>
    <v>      -4.23188442       7.32983882       0.00000000 </v>
    <v>       0.00000000       0.00000000      34.55319157 </v>
   </varray>
   <i name="volume">   2143.61301901 </i>
   <varray name="rec_basis" >
    <v>       0.11815067       0.06821432      -0.00000000 </v>
    <v>      -0.00000000       0.13642865       0.00000000 </v>
    <v>       0.00000000       0.00000000       0.02894089 </v>
   </varray>
  </crystal>
  <varray name="positions" >
   <v>       0.11111111       0.22222222       0.33333333 </v>
   <v>       0.00000000       0.00000000       0.46666667 </v>
   <v>       0.22222222       0.11111111       0.40000000 </v>
   <v>       0.11111111       0.22222222       0.53333333 </v>
   <v>       0.32507847       0.00716811       0.66816773 </v>
   <v>       0.22222222       0.11111111       0.60000000 </v>
   <v>       0.11111111       0.55555556       0.33333333 </v>
   <v>       0.00000000       0.33333333       0.46666667 </v>
   <v>       0.22222222       0.44444444       0.40000000 </v>
   <v>       0.11111111       0.55555556       0.53333333 </v>
   <v>       0.33199322       0.33221874       0.66724897 </v>
   <v>       0.22222222       0.44444444       0.60000000 </v>
   <v>       0.11111111       0.88888889       0.33333333 </v>
   <v>       0.00000000       0.66666667       0.46666667 </v>
   <v>       0.22222222       0.77777778       0.40000000 </v>
   <v>       0.11111111       0.88888889       0.53333333 </v>
   <v>       0.32477028       0.65091246       0.66815240 </v>
   <v>       0.22222222       0.77777778       0.60000000 </v>
   <v>       0.44444444       0.22222222       0.33333333 </v>
   <v>       0.33333333       0.00000000       0.46666667 </v>
   <v>       0.55555556       0.11111111       0.40000000 </v>
   <v>       0.44444444       0.22222222       0.53333333 </v>
   <v>       0.68099699       0.00700706       0.66828216 </v>
   <v>       0.55555556       0.11111111       0.60000000 </v>
   <v>       0.44444444       0.55555556       0.33333333 </v>
   <v>       0.33333333       0.33333333       0.46666667 </v>
   <v>       0.55555556       0.44444444       0.40000000 </v>
   <v>       0.44444444       0.55555556       0.53333333 </v>
   <v>       0.66764340       0.33672144       0.66706230 </v>
   <v>       0.55555556       0.44444444       0.60000000 </v>
   <v>       0.44444444       0.88888889       0.33333333 </v>
   <v>       0.33333333       0.66666667       0.46666667 </v>
   <v>       0.55555556       0.77777778       0.40000000 </v>
   <v>       0.44444444       0.88888889       0.53333333 </v>
   <v>       0.66807251       0.66416037       0.66705983 </v>
   <v>       0.55555556       0.77777778       0.60000000 </v>
   <v>       0.77777778       0.22222222       0.33333333 </v>
   <v>       0.66666667       0.00000000       0.46666667 </v>
   <v>       0.88888889       0.11111111       0.40000000 </v>
   <v>       0.77777778       0.22222222       0.53333333 </v>
   <v>       0.99908838       0.99998620       0.66725833 </v>
   <v>       0.88888889       0.11111111       0.60000000 </v>
   <v>       0.77777778       0.55555556       0.33333333 </v>
   <v>       0.66666667       0.33333333       0.46666667 </v>
   <v>       0.88888889       0.44444444       0.40000000 </v>
   <v>       0.77777778       0.55555556       0.53333333 </v>
   <v>       0.99959767       0.33279281       0.66720646 </v>
   <v>       0.88888889       0.44444444       0.60000000 </v>
   <v>       0.77777778       0.88888889       0.33333333 </v>
   <v>       0.66666667       0.66666667       0.46666667 </v>
   <v>       0.88888889       0.77777778       0.40000000 </v>
   <v>       0.77777778       0.88888889       0.53333333 </v>
   <v>       0.99503181       0.66383501       0.66708210 </v>
   <v>       0.88888889       0.77777778       0.60000000 </v>
   <v>       0.44353292       0.88815002       0.69941425 </v>
  </varray>
  <varray name="selective"  type="logical" >
   <v type="logical" >  F  F  F </v>
   <v type="logical" >  F  F  F </v>
   <v type="logical" >  F  F  F </v>
   <v type="logical" >  F  F  F </v>
   <v type="logical" >  T  T  T </v>
   <v type="logical" >  F  F  F </v>
   <v type="logical" >  F  F  F </v>
   <v type="logical" >  F  F  F </v>
   <v type="logical" >  F  F  F </v>
   <v type="logical" >  F  F  F </v>
   <v type="logical" >  T  T  T </v>
   <v type="logical" >  F  F  F </v>
   <v type="logical" >  F  F  F </v>
   <v type="logical" >  F  F  F </v>
   <v type="logical" >  F  F  F </v>
   <v type="logical" >  F  F  F </v>
   <v type="logical" >  T  T  T </v>
   <v type="logical" >  F  F  F </v>
   <v type="logical" >  F  F  F </v>
   <v type="logical" >  F  F  F </v>
   <v type="logical" >  F  F  F </v>
   <v type="logical" >  F  F  F </v>
   <v type="logical" >  T  T  T </v>
   <v type="logical" >  F  F  F </v>
   <v type="logical" >  F  F  F </v>
   <v type="logical" >  F  F  F </v>
   <v type="logical" >  F  F  F </v>
   <v type="logical" >  F  F  F </v>
   <v type="logical" >  T  T  T </v>
   <v type="logical" >  F  F  F </v>
   <v type="logical" >  F  F  F </v>
   <v type="logical" >  F  F  F </v>
   <v type="logical" >  F  F  F </v>
   <v type="logical" >  F  F  F </v>
   <v type="logical" >  T  T  T </v>
   <v type="logical" >  F  F  F </v>
   <v type="logical" >  F  F  F </v>
   <v type="logical" >  F  F  F </v>
   <v type="logical" >  F  F  F </v>
   <v type="logical" >  F  F  F </v>
   <v type="logical" >  T  T  T </v>
   <v type="logical" >  F  F  F </v>
   <v type="logical" >  F  F  F </v>
   <v type="logical" >  F  F  F </v>
   <v type="logical" >  F  F  F </v>
   <v type="logical" >  F  F  F </v>
   <v type="logical" >  T  T  T </v>
   <v type="logical" >  F  F  F </v>
   <v type="logical" >  F  F  F </v>
   <v type="logical" >  F  F  F </v>
   <v type="logical" >  F  F  F </v>
   <v type="logical" >  F  F  F </v>
   <v type="logical" >  T  T  T </v>
   <v type="logical" >  F  F  F </v>
   <v type="logical" >  T  T  T </v>
  </varray>
  <nose>
   <v>      -3.00000000       0.00000000       0.00010000       0.00010000 </v>
  </nose>
 </structure>
 <calculation>
  <scstep>
   <time name="dav">   52.78   52.83</time>
   <time name="total">   53.07   53.67</time>
   <energy>
    <i name="alphaZ">   1313.36336119 </i>
    <i name="ewald"> 406553.88618040 </i>
    <i name="hartreedc">-448748.71364765 </i>
    <i name="XCdc">    194.87458335 </i>
    <i name="pawpsdc">  37969.02145915 </i>
    <i name="pawaedc"> -36391.17652320 </i>
    <i name="eentropy">      0.00254522 </i>
    <i name="bandstr">   2578.68739343 </i>
    <i name="atom">  39760.68289373 </i>
    <i name="e_fr_energy">   3230.62824561 </i>
    <i name="e_wo_entrp">   3230.62570040 </i>
    <i name="e_0_energy">   3230.62739721 </i>
   </energy>
  </scstep>
  <scstep>
   <time name="dav">   60.97   61.02</time>
   <time name="total">   60.98   61.03</time>
   <energy>
    <i name="e_fr_energy">    -59.60322123 </i>
    <i name="e_wo_entrp">    -59.61106577 </i>
    <i name="e_0_energy">    -59.60583607 </i>
   </energy>
  </scstep>
  <scstep>
   <time name="dav">   60.14   60.20</time>
   <time name="total">   60.21   60.26</time>
   <energy>
    <i name="e_fr_energy">   -298.83419822 </i>
    <i name="e_wo_entrp">   -298.75545323 </i>
    <i name="e_0_energy">   -298.80794989 </i>
   </energy>
  </scstep>
  <scstep>
   <time name="dav">   65.76   65.81</time>
   <time name="total">   65.80   65.85</time>
   <energy>
    <i name="e_fr_energy">   -309.95716880 </i>
    <i name="e_wo_entrp">   -309.87539924 </i>
    <i name="e_0_energy">   -309.92991228 </i>
   </energy>
  </scstep>
  <scstep>
   <time name="dav">   66.60   66.65</time>
   <time name="total">   70.06   70.10</time>
   <energy>
    <i name="e_fr_energy">   -310.26243754 </i>
    <i name="e_wo_entrp">   -310.18052978 </i>
    <i name="e_0_energy">   -310.23513495 </i>
   </energy>
  </scstep>
  <scstep>
   <time name="dav">   60.76   60.81</time>
   <time name="total">   64.28   64.33</time>
   <energy>
    <i name="e_fr_energy">   -321.00828827 </i>
    <i name="e_wo_entrp">   -321.10223909 </i>
    <i name="e_0_energy">   -321.03960521 </i>
   </energy>
  </scstep>
  <scstep>
   <time name="dav">   76.45   76.51</time>
   <time name="total">   80.18   80.23</time>
   <energy>
    <i name="e_fr_energy">   -473.20193910 </i>
    <i name="e_wo_entrp">   -473.22687588 </i>
    <i name="e_0_energy">   -473.21025136 </i>
   </energy>
  </scstep>
  <scstep>
   <time name="dav">   76.47   76.53</time>
   <time name="total">   80.05   80.11</time>
   <energy>
    <i name="e_fr_energy">   -470.88451119 </i>
    <i name="e_wo_entrp">   -470.83683948 </i>
    <i name="e_0_energy">   -470.86862062 </i>
   </energy>
  </scstep>
  <scstep>
   <time name="dav">   67.97   68.02</time>
   <time name="total">   71.48   71.53</time>
   <energy>
    <i name="e_fr_energy">   -359.73058265 </i>
    <i name="e_wo_entrp">   -359.72831418 </i>
    <i name="e_0_energy">   -359.72982649 </i>
   </energy>
  </scstep>
  <scstep>
   <time name="dav">   60.59   60.63</time>
   <time name="total">   64.32   64.36</time>
   <energy>
    <i name="e_fr_energy">   -379.47882260 </i>
    <i name="e_wo_entrp">   -379.50733535 </i>
    <i name="e_0_energy">   -379.48832685 </i>
   </energy>
  </scstep>
  <scstep>
   <time name="dav">   63.36   63.40</time>
   <time name="total">   66.93   66.98</time>
   <energy>
    <i name="e_fr_energy">   -314.90578266 </i>
    <i name="e_wo_entrp">   -314.82205826 </i>
    <i name="e_0_energy">   -314.87787453 </i>
   </energy>
  </scstep>
  <scstep>
   <time name="dav">   61.00   61.04</time>
   <time name="total">   64.47   64.51</time>
   <energy>
    <i name="e_fr_energy">   -298.80888659 </i>
    <i name="e_wo_entrp">   -298.82569427 </i>
    <i name="e_0_energy">   -298.81448915 </i>
   </energy>
  </scstep>
  <scstep>
   <time name="dav">   58.79   58.83</time>
   <time name="total">   62.43   62.49</time>
   <energy>
    <i name="e_fr_energy">   -295.69971466 </i>
    <i name="e_wo_entrp">   -295.75759546 </i>
    <i name="e_0_energy">   -295.71900826 </i>
   </energy>
  </scstep>
  <scstep>
   <time name="dav">   57.90   57.94</time>
   <time name="total">   61.59   61.63</time>
   <energy>
    <i name="e_fr_energy">   -291.25622349 </i>
    <i name="e_wo_entrp">   -291.19023879 </i>
    <i name="e_0_energy">   -291.23422859 </i>
   </energy>
  </scstep>
  <scstep>
   <time name="dav">   58.76   58.81</time>
   <time name="total">   62.60   62.65</time>
   <energy>
    <i name="e_fr_energy">   -291.42019658 </i>
    <i name="e_wo_entrp">   -291.31532460 </i>
    <i name="e_0_energy">   -291.38523926 </i>
   </energy>
  </scstep>
  <scstep>
   <time name="dav">   56.67   56.71</time>
   <time name="total">   60.28   60.33</time>
   <energy>
    <i name="e_fr_energy">   -291.40902917 </i>
    <i name="e_wo_entrp">   -291.27889906 </i>
    <i name="e_0_energy">   -291.36565247 </i>
   </energy>
  </scstep>
  <scstep>
   <time name="dav">   59.66   59.71</time>
   <time name="total">   63.27   63.32</time>
   <energy>
    <i name="e_fr_energy">   -291.50467354 </i>
    <i name="e_wo_entrp">   -291.40866771 </i>
    <i name="e_0_energy">   -291.47267160 </i>
   </energy>
  </scstep>
  <scstep>
   <time name="dav">   57.75   57.79</time>
   <time name="total">   61.41   61.45</time>
   <energy>
    <i name="e_fr_energy">   -291.37528764 </i>
    <i name="e_wo_entrp">   -291.30348119 </i>
    <i name="e_0_energy">   -291.35135216 </i>
   </energy>
  </scstep>
  <scstep>
   <time name="dav">   58.48   58.52</time>
   <time name="total">   62.21   62.26</time>
   <energy>
    <i name="e_fr_energy">   -290.75554838 </i>
    <i name="e_wo_entrp">   -290.67159638 </i>
    <i name="e_0_energy">   -290.72756438 </i>
   </energy>
  </scstep>
  <scstep>
   <time name="dav">   56.95   57.00</time>
   <time name="total">   60.79   60.84</time>
   <energy>
    <i name="e_fr_energy">   -290.72009867 </i>
    <i name="e_wo_entrp">   -290.61616009 </i>
    <i name="e_0_energy">   -290.68545248 </i>
   </energy>
  </scstep>
  <scstep>
   <time name="dav">   57.29   57.33</time>
   <time name="total">   60.96   61.08</time>
   <energy>
    <i name="e_fr_energy">   -290.72344624 </i>
    <i name="e_wo_entrp">   -290.62129257 </i>
    <i name="e_0_energy">   -290.68939502 </i>
   </energy>
  </scstep>
  <scstep>
   <time name="dav">   57.43   57.48</time>
   <time name="total">   60.91   60.96</time>
   <energy>
    <i name="e_fr_energy">   -290.72120459 </i>
    <i name="e_wo_entrp">   -290.61818437 </i>
    <i name="e_0_energy">   -290.68686452 </i>
   </energy>
  </scstep>
  <scstep>
   <time name="dav">   57.94   57.98</time>
   <time name="total">   61.41   61.45</time>
   <energy>
    <i name="e_fr_energy">   -290.67401990 </i>
    <i name="e_wo_entrp">   -290.56713158 </i>
    <i name="e_0_energy">   -290.63839046 </i>
   </energy>
  </scstep>
  <scstep>
   <time name="dav">   57.86   57.97</time>
   <time name="total">   61.27   61.38</time>
   <energy>
    <i name="e_fr_energy">   -290.65677567 </i>
    <i name="e_wo_entrp">   -290.55246630 </i>
    <i name="e_0_energy">   -290.62200588 </i>
   </energy>
  </scstep>
  <scstep>
   <time name="dav">   56.55   56.60</time>
   <time name="total">   59.97   60.03</time>
   <energy>
    <i name="e_fr_energy">   -290.65213085 </i>
    <i name="e_wo_entrp">   -290.54900758 </i>
    <i name="e_0_energy">   -290.61775643 </i>
   </energy>
  </scstep>
  <scstep>
   <time name="dav">   56.38   56.43</time>
   <time name="total">   59.71   59.75</time>
   <energy>
    <i name="e_fr_energy">   -290.65486364 </i>
    <i name="e_wo_entrp">   -290.55273195 </i>
    <i name="e_0_energy">   -290.62081974 </i>
   </energy>
  </scstep>
  <scstep>
   <time name="dav">   55.23   55.28</time>
   <time name="total">   58.69   58.73</time>
   <energy>
    <i name="e_fr_energy">   -290.65137744 </i>
    <i name="e_wo_entrp">   -290.55030098 </i>
    <i name="e_0_energy">   -290.61768529 </i>
   </energy>
  </scstep>
  <scstep>
   <time name="dav">   55.86   55.91</time>
   <time name="total">   59.26   59.30</time>
   <energy>
    <i name="e_fr_energy">   -290.64596888 </i>
    <i name="e_wo_entrp">   -290.54665982 </i>
    <i name="e_0_energy">   -290.61286586 </i>
   </energy>
  </scstep>
  <scstep>
   <time name="dav">   56.19   56.24</time>
   <time name="total">   59.65   59.71</time>
   <energy>
    <i name="e_fr_energy">   -290.64608147 </i>
    <i name="e_wo_entrp">   -290.54681528 </i>
    <i name="e_0_energy">   -290.61299274 </i>
   </energy>
  </scstep>
  <scstep>
   <time name="dav">   41.98   42.02</time>
   <time name="total">   45.38   45.41</time>
   <energy>
    <i name="e_fr_energy">   -290.64564192 </i>
    <i name="e_wo_entrp">   -290.54667095 </i>
    <i name="e_0_energy">   -290.61265160 </i>
   </energy>
  </scstep>
  <scstep>
   <time name="dav">   41.59   41.63</time>
   <time name="total">   45.08   45.12</time>
   <energy>
    <i name="e_fr_energy">   -290.64549055 </i>
    <i name="e_wo_entrp">   -290.54708752 </i>
    <i name="e_0_energy">   -290.61268954 </i>
   </energy>
  </scstep>
  <scstep>
   <time name="dav">   44.64   44.68</time>
   <time name="total">   47.96   47.99</time>
   <energy>
    <i name="e_fr_energy">   -290.64575532 </i>
    <i name="e_wo_entrp">   -290.54841881 </i>
    <i name="e_0_energy">   -290.61330981 </i>
   </energy>
  </scstep>
  <scstep>
   <time name="dav">   36.26   36.29</time>
   <time name="total">   39.83   39.87</time>
   <energy>
    <i name="e_fr_energy">   -290.64557883 </i>
    <i name="e_wo_entrp">   -290.54815837 </i>
    <i name="e_0_energy">   -290.61310535 </i>
   </energy>
  </scstep>
  <scstep>
   <time name="dav">   35.17   35.20</time>
   <time name="total">   35.38   35.41</time>
   <energy>
    <i name="alphaZ">   1313.36336119 </i>
    <i name="ewald"> 406553.88618040 </i>
    <i name="hartreedc">-448216.06867842 </i>
    <i name="XCdc">    178.89915344 </i>
    <i name="pawpsdc">  48231.48745614 </i>
    <i name="pawaedc"> -46796.51697917 </i>
    <i name="eentropy">     -0.09750722 </i>
    <i name="bandstr">  -1316.28146072 </i>
    <i name="atom">  39760.68289373 </i>
    <i name="e_fr_energy">   -290.64558063 </i>
    <i name="e_wo_entrp">   -290.54807341 </i>
    <i name="e_0_energy">   -290.61307822 </i>
   </energy>
  </scstep>
  <structure>
   <crystal>
    <varray name="basis" >
     <v>       8.46376883       0.00000000      -0.00000000 </v>
     <v>      -4.23188442       7.32983882       0.00000000 </v>
     <v>       0.00000000       0.00000000      34.55319157 </v>
    </varray>
    <i name="volume">   2143.61301901 </i>
    <varray name="rec_basis" >
     <v>       0.11815067       0.06821432      -0.00000000 </v>
     <v>      -0.00000000       0.13642865       0.00000000 </v>
     <v>       0.00000000       0.00000000       0.02894089 </v>
    </varray>
   </crystal>
   <varray name="positions" >
    <v>       0.11111111       0.22222222       0.33333333 </v>
    <v>       0.00000000       0.00000000       0.46666667 </v>
    <v>       0.22222222       0.11111111       0.40000000 </v>
    <v>       0.11111111       0.22222222       0.53333333 </v>
    <v>       0.32507847       0.00716811       0.66816773 </v>
    <v>       0.22222222       0.11111111       0.60000000 </v>
    <v>       0.11111111       0.55555556       0.33333333 </v>
    <v>       0.00000000       0.33333333       0.46666667 </v>
    <v>       0.22222222       0.44444444       0.40000000 </v>
    <v>       0.11111111       0.55555556       0.53333333 </v>
    <v>       0.33199322       0.33221874       0.66724897 </v>
    <v>       0.22222222       0.44444444       0.60000000 </v>
    <v>       0.11111111       0.88888889       0.33333333 </v>
    <v>       0.00000000       0.66666667       0.46666667 </v>
    <v>       0.22222222       0.77777778       0.40000000 </v>
    <v>       0.11111111       0.88888889       0.53333333 </v>
    <v>       0.32477028       0.65091246       0.66815240 </v>
    <v>       0.22222222       0.77777778       0.60000000 </v>
    <v>       0.44444444       0.22222222       0.33333333 </v>
    <v>       0.33333333       0.00000000       0.46666667 </v>
    <v>       0.55555556       0.11111111       0.40000000 </v>
    <v>       0.44444444       0.22222222       0.53333333 </v>
    <v>       0.68099699       0.00700706       0.66828216 </v>
    <v>       0.55555556       0.11111111       0.60000000 </v>
    <v>       0.44444444       0.55555556       0.33333333 </v>
    <v>       0.33333333       0.33333333       0.46666667 </v>
    <v>       0.55555556       0.44444444       0.40000000 </v>
    <v>       0.44444444       0.55555556       0.53333333 </v>
    <v>       0.66764340       0.33672144       0.66706230 </v>
    <v>       0.55555556       0.44444444       0.60000000 </v>
    <v>       0.44444444       0.88888889       0.33333333 </v>
    <v>       0.33333333       0.66666667       0.46666667 </v>
    <v>       0.55555556       0.77777778       0.40000000 </v>
    <v>       0.44444444       0.88888889       0.53333333 </v>
    <v>       0.66807251       0.66416037       0.66705983 </v>
    <v>       0.55555556       0.77777778       0.60000000 </v>
    <v>       0.77777778       0.22222222       0.33333333 </v>
    <v>       0.66666667       0.00000000       0.46666667 </v>
    <v>       0.88888889       0.11111111       0.40000000 </v>
    <v>       0.77777778       0.22222222       0.53333333 </v>
    <v>       0.99908838       0.99998620       0.66725833 </v>
    <v>       0.88888889       0.11111111       0.60000000 </v>
    <v>       0.77777778       0.55555556       0.33333333 </v>
    <v>       0.66666667       0.33333333       0.46666667 </v>
    <v>       0.88888889       0.44444444       0.40000000 </v>
    <v>       0.77777778       0.55555556       0.53333333 </v>
    <v>       0.99959767       0.33279281       0.66720646 </v>
    <v>       0.88888889       0.44444444       0.60000000 </v>
    <v>       0.77777778       0.88888889       0.33333333 </v>
    <v>       0.66666667       0.66666667       0.46666667 </v>
    <v>       0.88888889       0.77777778       0.40000000 </v>
    <v>       0.77777778       0.88888889       0.53333333 </v>
    <v>       0.99503181       0.66383501       0.66708210 </v>
    <v>       0.88888889       0.77777778       0.60000000 </v>
    <v>       0.44353292       0.88815002       0.69941425 </v>
   </varray>
  </structure>
  <varray name="forces" >
   <v>      -0.00021863       0.00118629      -0.14942523 </v>
   <v>       0.00025229      -0.01706235      -0.01950385 </v>
   <v>       0.00833237      -0.00134934       0.22470906 </v>
   <v>       0.00106557       0.00181287      -0.05522205 </v>
   <v>      -0.06380705       0.01920635       0.06469094 </v>
   <v>       0.15475665      -0.09871989       0.10432598 </v>
   <v>       0.00345007       0.00334624      -0.15710849 </v>
   <v>      -0.01443008       0.00801058      -0.02750456 </v>
   <v>      -0.00027135       0.01051799       0.22447550 </v>
   <v>      -0.01144469      -0.02743237      -0.07038497 </v>
   <v>      -0.01669323       0.02176077       0.07598646 </v>
   <v>      -0.00072520       0.18316527       0.10187057 </v>
   <v>       0.00664009       0.00102037      -0.15500691 </v>
   <v>      -0.00100511       0.00030362       0.00657558 </v>
   <v>       0.01342544       0.00315728       0.21554648 </v>
   <v>      -0.02841173       0.00432953      -0.06576302 </v>
   <v>       0.01758513      -0.06301001       0.06770802 </v>
   <v>       0.03515577       0.01799310      -0.08817336 </v>
   <v>      -0.00173286      -0.00765615      -0.15673680 </v>
   <v>      -0.00284865       0.00154946       0.02288162 </v>
   <v>      -0.00031753      -0.01185501       0.21550554 </v>
   <v>      -0.01986811       0.02485016      -0.07013534 </v>
   <v>       0.06834570       0.04459221       0.04150984 </v>
   <v>       0.00144474      -0.04943621      -0.08836502 </v>
   <v>      -0.00399957       0.00347188      -0.15716480 </v>
   <v>       0.01364229       0.00757367      -0.02673870 </v>
   <v>      -0.00578514      -0.00286778       0.20506888 </v>
   <v>       0.01427773      -0.02846679      -0.06852186 </v>
   <v>       0.01191474      -0.01685455      -0.00872233 </v>
   <v>      -0.00328163      -0.00009155      -0.19532278 </v>
   <v>      -0.00019738       0.00064105      -0.15513801 </v>
   <v>       0.00041594      -0.00259595       0.02570938 </v>
   <v>      -0.01386761       0.00309202       0.21560202 </v>
   <v>       0.00157940       0.00212203       0.00483641 </v>
   <v>      -0.02712713       0.01081940      -0.01118842 </v>
   <v>      -0.04499044       0.01845911      -0.08403937 </v>
   <v>       0.00134600      -0.00746871      -0.15664503 </v>
   <v>       0.00298271       0.00186918       0.02290642 </v>
   <v>      -0.00852150      -0.00150009       0.22474879 </v>
   <v>       0.02203870       0.02437975      -0.06774807 </v>
   <v>       0.03492683       0.00329219       0.07742247 </v>
   <v>      -0.17401977      -0.09652248       0.10159258 </v>
   <v>       0.00001300       0.00313801      -0.13929171 </v>
   <v>       0.00041219       0.00089900       0.00925643 </v>
   <v>       0.00551442      -0.00296664       0.20470999 </v>
   <v>       0.00189306       0.00437321      -0.06155457 </v>
   <v>      -0.00032138      -0.02183990       0.08619029 </v>
   <v>      -0.01088024      -0.00197441      -0.19742298 </v>
   <v>      -0.00696075       0.00088858      -0.15450547 </v>
   <v>       0.00102193      -0.00014689       0.00637931 </v>
   <v>      -0.00023044       0.00239267       0.20479957 </v>
   <v>       0.03017457       0.00364070      -0.06700935 </v>
   <v>       0.01703865       0.03057615      -0.01521772 </v>
   <v>      -0.00102698      -0.01069321      -0.19153245 </v>
   <v>      -0.00666177       0.00207958       0.10608509 </v>
  </varray>
  <energy>
   <i name="e_fr_energy">   -290.64558063 </i>
   <i name="e_wo_entrp">   -290.54807341 </i>
   <i name="e_0_energy">   -290.61307822 </i>
  </energy>
  <time name="totalsc"> 2068.44 2070.82</time>
  <eigenvalues>
   <array>
    <dimension dim="1">band</dimension>
    <dimension dim="2">kpoint</dimension>
    <dimension dim="3">spin</dimension>
    <field>eigene</field>
    <field>occ</field>
    <set>
     <set comment="spin 1">
      <set comment="kpoint 1">
       <r>  -18.7336    1.0000 </r>
       <r>   -8.5534    1.0000 </r>
       <r>   -7.8376    1.0000 </r>
       <r>   -6.9405    1.0000 </r>
       <r>   -6.2147    1.0000 </r>
       <r>   -6.1339    1.0000 </r>
       <r>   -6.1326    1.0000 </r>
       <r>   -6.0084    1.0000 </r>
       <r>   -5.9999    1.0000 </r>
       <r>   -5.9996    1.0000 </r>
       <r>   -5.9993    1.0000 </r>
       <r>   -5.9032    1.0000 </r>
       <r>   -5.9030    1.0000 </r>
       <r>   -5.9025    1.0000 </r>
       <r>   -5.8039    1.0000 </r>
       <r>   -5.5850    1.0000 </r>
       <r>   -5.5645    1.0000 </r>
       <r>   -5.5625    1.0000 </r>
       <r>   -5.5622    1.0000 </r>
       <r>   -5.5066    1.0000 </r>
       <r>   -5.5064    1.0000 </r>
       <r>   -5.3369    1.0000 </r>
       <r>   -5.3053    1.0000 </r>
       <r>   -5.3052    1.0000 </r>
       <r>   -5.3033    1.0000 </r>
       <r>   -5.2404    1.0000 </r>
       <r>   -5.2401    1.0000 </r>
       <r>   -5.1508    1.0000 </r>
       <r>   -5.0162    1.0000 </r>
       <r>   -5.0158    1.0000 </r>
       <r>   -5.0041    1.0000 </r>
       <r>   -4.9036    1.0000 </r>
       <r>   -4.9031    1.0000 </r>
       <r>   -4.8460    1.0000 </r>
       <r>   -4.7071    1.0000 </r>
       <r>   -4.7067    1.0000 </r>
       <r>   -4.7005    1.0000 </r>
       <r>   -4.6939    1.0000 </r>
       <r>   -4.6923    1.0000 </r>
       <r>   -4.6919    1.0000 </r>
       <r>   -4.6078    1.0000 </r>
       <r>   -4.6070    1.0000 </r>
       <r>   -4.5695    1.0000 </r>
       <r>   -4.4632    1.0000 </r>
       <r>   -4.4629    1.0000 </r>
       <r>   -4.4460    1.0000 </r>
       <r>   -4.4187    1.0000 </r>
       <r>   -4.4187    1.0000 </r>
       <r>   -4.4166    1.0000 </r>
       <r>   -4.4114    1.0000 </r>
       <r>   -4.4108    1.0000 </r>
       <r>   -4.4106    1.0000 </r>
       <r>   -4.3778    1.0000 </r>
       <r>   -4.3775    1.0000 </r>
       <r>   -4.3439    1.0000 </r>
       <r>   -4.2448    1.0000 </r>
       <r>   -4.2443    1.0000 </r>
       <r>   -4.2049    1.0000 </r>
       <r>   -4.1967    1.0000 </r>
       <r>   -4.1960    1.0000 </r>
       <r>   -4.1831    1.0000 </r>
       <r>   -4.1289    1.0000 </r>
       <r>   -4.1271    1.0000 </r>
       <r>   -4.0135    1.0000 </r>
       <r>   -4.0129    1.0000 </r>
       <r>   -3.9639    1.0000 </r>
       <r>   -3.9625    1.0000 </r>
       <r>   -3.9311    1.0000 </r>
       <r>   -3.9309    1.0000 </r>
       <r>   -3.7727    1.0000 </r>
       <r>   -3.7315    1.0000 </r>
       <r>   -3.7314    1.0000 </r>
       <r>   -3.6703    1.0000 </r>
       <r>   -3.6308    1.0000 </r>
       <r>   -3.6306    1.0000 </r>
       <r>   -3.6281    1.0000 </r>
       <r>   -3.6272    1.0000 </r>
       <r>   -3.6233    1.0000 </r>
       <r>   -3.6232    1.0000 </r>
       <r>   -3.6083    1.0000 </r>
       <r>   -3.5805    1.0000 </r>
       <r>   -3.3600    1.0000 </r>
       <r>   -3.3568    1.0000 </r>
       <r>   -3.3295    1.0000 </r>
       <r>   -3.3189    1.0000 </r>
       <r>   -3.3164    1.0000 </r>
       <r>   -3.1158    1.0000 </r>
       <r>   -3.1152    1.0000 </r>
       <r>   -3.0924    1.0000 </r>
       <r>   -3.0918    1.0000 </r>
       <r>   -3.0604    1.0000 </r>
       <r>   -3.0062    1.0000 </r>
       <r>   -2.8578    1.0000 </r>
       <r>   -2.8422    1.0000 </r>
       <r>   -2.8408    1.0000 </r>
       <r>   -2.8396    1.0000 </r>
       <r>   -2.8097    1.0000 </r>
       <r>   -2.7959    1.0000 </r>
       <r>   -2.7955    1.0000 </r>
       <r>   -2.7806    1.0000 </r>
       <r>   -2.7614    1.0000 </r>
       <r>   -2.7613    1.0000 </r>
       <r>   -2.7569    1.0000 </r>
       <r>   -2.7360    1.0000 </r>
       <r>   -2.6965    1.0000 </r>
       <r>   -2.6964    1.0000 </r>
       <r>   -2.6597    1.0000 </r>
       <r>   -2.6596    1.0000 </r>
       <r>   -2.5742    1.0000 </r>
       <r>   -2.5741    1.0000 </r>
       <r>   -2.5663    1.0000 </r>
       <r>   -2.5493    1.0000 </r>
       <r>   -2.5479    1.0000 </r>
       <r>   -2.5379    1.0000 </r>
       <r>   -2.5364    1.0000 </r>
       <r>   -2.5170    1.0000 </r>
       <r>   -2.5153    1.0000 </r>
       <r>   -2.5147    1.0000 </r>
       <r>   -2.5023    1.0000 </r>
       <r>   -2.4640    1.0000 </r>
       <r>   -2.4634    1.0000 </r>
       <r>   -2.4434    1.0000 </r>
       <r>   -2.4416    1.0000 </r>
       <r>   -2.4359    1.0000 </r>
       <r>   -2.4337    1.0000 </r>
       <r>   -2.4248    1.0000 </r>
       <r>   -2.4176    1.0000 </r>
       <r>   -2.3644    1.0000 </r>
       <r>   -2.3641    1.0000 </r>
       <r>   -2.3580    1.0000 </r>
       <r>   -2.3575    1.0000 </r>
       <r>   -2.3350    1.0000 </r>
       <r>   -2.3324    1.0000 </r>
       <r>   -2.3315    1.0000 </r>
       <r>   -2.3303    1.0000 </r>
       <r>   -2.3290    1.0000 </r>
       <r>   -2.3224    1.0000 </r>
       <r>   -2.3221    1.0000 </r>
       <r>   -2.3170    1.0000 </r>
       <r>   -2.3103    1.0000 </r>
       <r>   -2.3099    1.0000 </r>
       <r>   -2.1378    1.0000 </r>
       <r>   -2.1121    1.0000 </r>
       <r>   -2.1109    1.0000 </r>
       <r>   -2.1089    1.0000 </r>
       <r>   -2.0368    1.0000 </r>
       <r>   -2.0368    1.0000 </r>
       <r>   -2.0025    1.0000 </r>
       <r>   -2.0007    1.0000 </r>
       <r>   -1.9926    1.0000 </r>
       <r>   -1.9902    1.0000 </r>
       <r>   -1.9810    1.0000 </r>
       <r>   -1.9727    1.0000 </r>
       <r>   -1.9391    1.0000 </r>
       <r>   -1.9391    1.0000 </r>
       <r>   -1.9063    1.0000 </r>
       <r>   -1.9053    1.0000 </r>
       <r>   -1.8743    1.0000 </r>
       <r>   -1.8743    1.0000 </r>
       <r>   -1.8393    1.0000 </r>
       <r>   -1.8112    1.0000 </r>
       <r>   -1.8102    1.0000 </r>
       <r>   -1.8035    1.0000 </r>
       <r>   -1.7827    1.0000 </r>
       <r>   -1.7825    1.0000 </r>
       <r>   -1.7513    1.0000 </r>
       <r>   -1.4601    1.0000 </r>
       <r>   -1.4592    1.0000 </r>
       <r>   -1.4141    1.0000 </r>
       <r>   -1.4094    1.0000 </r>
       <r>   -1.4086    1.0000 </r>
       <r>   -1.3567    1.0000 </r>
       <r>   -1.2531    1.0000 </r>
       <r>   -1.2525    1.0000 </r>
       <r>   -1.2323    1.0000 </r>
       <r>   -1.2265    1.0000 </r>
       <r>   -1.2255    1.0000 </r>
       <r>   -1.1878    1.0000 </r>
       <r>   -1.1834    1.0000 </r>
       <r>   -1.1825    1.0000 </r>
       <r>   -1.1114    1.0000 </r>
       <r>   -1.0615    1.0000 </r>
       <r>   -1.0565    1.0000 </r>
       <r>   -1.0523    1.0000 </r>
       <r>   -1.0518    1.0000 </r>
       <r>   -1.0480    1.0000 </r>
       <r>   -1.0476    1.0000 </r>
       <r>   -1.0317    1.0000 </r>
       <r>   -1.0313    1.0000 </r>
       <r>   -1.0311    1.0000 </r>
       <r>   -1.0187    1.0000 </r>
       <r>   -1.0186    1.0000 </r>
       <r>   -1.0103    1.0000 </r>
       <r>   -0.9396    1.0000 </r>
       <r>   -0.9073    1.0000 </r>
       <r>   -0.8484    1.0000 </r>
       <r>   -0.8462    1.0000 </r>
       <r>   -0.7313    1.0000 </r>
       <r>   -0.7309    1.0000 </r>
       <r>   -0.7307    1.0000 </r>
       <r>   -0.6668    1.0000 </r>
       <r>   -0.6668    1.0000 </r>
       <r>   -0.6553    1.0000 </r>
       <r>   -0.6517    1.0000 </r>
       <r>   -0.6286    1.0000 </r>
       <r>   -0.6260    1.0000 </r>
       <r>   -0.6258    1.0000 </r>
       <r>   -0.6085    1.0000 </r>
       <r>   -0.5205    1.0000 </r>
       <r>   -0.5196    1.0000 </r>
       <r>   -0.3832    1.0000 </r>
       <r>   -0.3797    1.0000 </r>
       <r>   -0.3745    1.0000 </r>
       <r>   -0.3454    1.0000 </r>
       <r>   -0.3450    1.0000 </r>
       <r>   -0.2494    1.0000 </r>
       <r>   -0.2492    1.0000 </r>
       <r>   -0.2401    1.0000 </r>
       <r>   -0.2348    1.0000 </r>
       <r>   -0.2283    1.0000 </r>
       <r>   -0.2283    1.0000 </r>
       <r>   -0.2089    1.0000 </r>
       <r>   -0.2038    1.0000 </r>
       <r>   -0.1816    1.0000 </r>
       <r>   -0.1814    1.0000 </r>
       <r>   -0.1600    1.0000 </r>
       <r>   -0.1564    1.0000 </r>
       <r>   -0.1563    1.0000 </r>
       <r>   -0.1447    1.0000 </r>
       <r>   -0.1445    1.0000 </r>
       <r>   -0.1422    1.0000 </r>
       <r>   -0.0907    1.0000 </r>
       <r>   -0.0906    1.0000 </r>
       <r>   -0.0892    1.0000 </r>
       <r>   -0.0831    1.0000 </r>
       <r>   -0.0829    1.0000 </r>
       <r>   -0.0745    1.0000 </r>
       <r>    0.0482    1.0000 </r>
       <r>    0.0495    1.0000 </r>
       <r>    0.0975    1.0000 </r>
       <r>    0.0984    1.0000 </r>
       <r>    0.1188    1.0000 </r>
       <r>    0.1228    1.0000 </r>
       <r>    0.1231    1.0000 </r>
       <r>    0.1266    1.0000 </r>
       <r>    0.1445    1.0000 </r>
       <r>    0.1447    1.0000 </r>
       <r>    0.2179    1.0002 </r>
       <r>    0.2184    1.0002 </r>
       <r>    0.2215    1.0002 </r>
       <r>    0.2362    1.0003 </r>
       <r>    0.2524    1.0004 </r>
       <r>    0.2529    1.0004 </r>
       <r>    0.2566    1.0004 </r>
       <r>    0.2751    1.0007 </r>
       <r>    0.2757    1.0007 </r>
       <r>    0.2896    1.0010 </r>
       <r>    0.2902    1.0010 </r>
       <r>    0.2980    1.0012 </r>
       <r>    0.2983    1.0012 </r>
       <r>    0.3048    1.0014 </r>
       <r>    0.3085    1.0015 </r>
       <r>    0.3089    1.0015 </r>
       <r>    0.3505    1.0035 </r>
       <r>    0.3826    1.0062 </r>
       <r>    0.3849    1.0065 </r>
       <r>    0.3852    1.0065 </r>
       <r>    0.3944    1.0076 </r>
       <r>    0.3945    1.0076 </r>
       <r>    0.4034    1.0088 </r>
       <r>    0.4045    1.0089 </r>
       <r>    0.4269    1.0124 </r>
       <r>    0.4452    1.0159 </r>
       <r>    0.4463    1.0161 </r>
       <r>    0.5500    1.0354 </r>
       <r>    0.5504    1.0354 </r>
       <r>    0.5740    1.0335 </r>
       <r>    0.5809    1.0318 </r>
       <r>    0.5901    1.0287 </r>
       <r>    0.5943    1.0268 </r>
       <r>    0.5969    1.0256 </r>
       <r>    0.6257    1.0039 </r>
       <r>    0.6259    1.0037 </r>
       <r>    0.6297    0.9996 </r>
       <r>    0.6398    0.9874 </r>
       <r>    0.6399    0.9872 </r>
       <r>    0.7674    0.6267 </r>
       <r>    0.7681    0.6239 </r>
       <r>    0.8699    0.2155 </r>
       <r>    0.8713    0.2109 </r>
       <r>    0.9182    0.0791 </r>
       <r>    0.9343    0.0464 </r>
       <r>    0.9344    0.0462 </r>
       <r>    0.9349    0.0452 </r>
       <r>    0.9839   -0.0164 </r>
       <r>    1.0841   -0.0306 </r>
       <r>    1.0850   -0.0304 </r>
       <r>    1.3120   -0.0008 </r>
       <r>    1.4683   -0.0000 </r>
       <r>    1.5416   -0.0000 </r>
       <r>    1.5418   -0.0000 </r>
       <r>    1.5485   -0.0000 </r>
       <r>    1.8158   -0.0000 </r>
       <r>    1.8169   -0.0000 </r>
       <r>    2.6479   -0.0000 </r>
       <r>    3.1086   -0.0000 </r>
       <r>    3.1091   -0.0000 </r>
       <r>    3.1121   -0.0000 </r>
       <r>    3.2773   -0.0000 </r>
       <r>    3.2791   -0.0000 </r>
       <r>    3.8141   -0.0000 </r>
       <r>    4.7521   -0.0000 </r>
       <r>    4.7557   -0.0000 </r>
       <r>    4.7571   -0.0000 </r>
       <r>    4.8227   -0.0000 </r>
       <r>    4.8256   -0.0000 </r>
       <r>    5.0549   -0.0000 </r>
       <r>    5.2659   -0.0000 </r>
       <r>    5.2670   -0.0000 </r>
       <r>    5.2929   -0.0000 </r>
       <r>    5.3316   -0.0000 </r>
       <r>    5.3451   -0.0000 </r>
       <r>    5.3457   -0.0000 </r>
       <r>    5.8613   -0.0000 </r>
       <r>    5.9019   -0.0000 </r>
       <r>    5.9046   -0.0000 </r>
       <r>    6.0015   -0.0000 </r>
       <r>    6.0106   -0.0000 </r>
      </set>
      <set comment="kpoint 2">
       <r>  -18.7334    1.0000 </r>
       <r>   -8.4042    1.0000 </r>
       <r>   -7.6942    1.0000 </r>
       <r>   -6.8040    1.0000 </r>
       <r>   -6.5813    1.0000 </r>
       <r>   -6.1969    1.0000 </r>
       <r>   -6.1838    1.0000 </r>
       <r>   -6.1170    1.0000 </r>
       <r>   -6.0608    1.0000 </r>
       <r>   -5.9809    1.0000 </r>
       <r>   -5.8829    1.0000 </r>
       <r>   -5.7980    1.0000 </r>
       <r>   -5.7647    1.0000 </r>
       <r>   -5.7447    1.0000 </r>
       <r>   -5.7353    1.0000 </r>
       <r>   -5.6618    1.0000 </r>
       <r>   -5.6378    1.0000 </r>
       <r>   -5.5937    1.0000 </r>
       <r>   -5.4366    1.0000 </r>
       <r>   -5.3681    1.0000 </r>
       <r>   -5.3296    1.0000 </r>
       <r>   -5.3247    1.0000 </r>
       <r>   -5.3012    1.0000 </r>
       <r>   -5.2444    1.0000 </r>
       <r>   -5.2301    1.0000 </r>
       <r>   -5.2199    1.0000 </r>
       <r>   -5.1548    1.0000 </r>
       <r>   -5.1116    1.0000 </r>
       <r>   -5.0363    1.0000 </r>
       <r>   -4.9684    1.0000 </r>
       <r>   -4.9302    1.0000 </r>
       <r>   -4.9174    1.0000 </r>
       <r>   -4.8892    1.0000 </r>
       <r>   -4.8104    1.0000 </r>
       <r>   -4.7976    1.0000 </r>
       <r>   -4.7799    1.0000 </r>
       <r>   -4.7713    1.0000 </r>
       <r>   -4.6895    1.0000 </r>
       <r>   -4.6889    1.0000 </r>
       <r>   -4.6223    1.0000 </r>
       <r>   -4.5973    1.0000 </r>
       <r>   -4.5956    1.0000 </r>
       <r>   -4.5735    1.0000 </r>
       <r>   -4.5337    1.0000 </r>
       <r>   -4.5110    1.0000 </r>
       <r>   -4.4720    1.0000 </r>
       <r>   -4.4632    1.0000 </r>
       <r>   -4.4531    1.0000 </r>
       <r>   -4.4147    1.0000 </r>
       <r>   -4.4016    1.0000 </r>
       <r>   -4.3867    1.0000 </r>
       <r>   -4.3504    1.0000 </r>
       <r>   -4.3454    1.0000 </r>
       <r>   -4.3139    1.0000 </r>
       <r>   -4.2934    1.0000 </r>
       <r>   -4.2687    1.0000 </r>
       <r>   -4.2675    1.0000 </r>
       <r>   -4.2214    1.0000 </r>
       <r>   -4.2117    1.0000 </r>
       <r>   -4.1938    1.0000 </r>
       <r>   -4.1254    1.0000 </r>
       <r>   -4.0865    1.0000 </r>
       <r>   -4.0122    1.0000 </r>
       <r>   -4.0072    1.0000 </r>
       <r>   -4.0042    1.0000 </r>
       <r>   -3.9985    1.0000 </r>
       <r>   -3.9913    1.0000 </r>
       <r>   -3.9270    1.0000 </r>
       <r>   -3.8350    1.0000 </r>
       <r>   -3.8041    1.0000 </r>
       <r>   -3.7542    1.0000 </r>
       <r>   -3.7391    1.0000 </r>
       <r>   -3.6957    1.0000 </r>
       <r>   -3.6879    1.0000 </r>
       <r>   -3.6615    1.0000 </r>
       <r>   -3.6590    1.0000 </r>
       <r>   -3.6145    1.0000 </r>
       <r>   -3.6049    1.0000 </r>
       <r>   -3.5486    1.0000 </r>
       <r>   -3.5476    1.0000 </r>
       <r>   -3.4782    1.0000 </r>
       <r>   -3.4304    1.0000 </r>
       <r>   -3.4193    1.0000 </r>
       <r>   -3.3534    1.0000 </r>
       <r>   -3.3387    1.0000 </r>
       <r>   -3.3098    1.0000 </r>
       <r>   -3.2060    1.0000 </r>
       <r>   -3.2036    1.0000 </r>
       <r>   -3.1695    1.0000 </r>
       <r>   -3.1591    1.0000 </r>
       <r>   -3.1476    1.0000 </r>
       <r>   -3.1346    1.0000 </r>
       <r>   -3.0753    1.0000 </r>
       <r>   -3.0586    1.0000 </r>
       <r>   -3.0400    1.0000 </r>
       <r>   -3.0105    1.0000 </r>
       <r>   -3.0089    1.0000 </r>
       <r>   -2.9669    1.0000 </r>
       <r>   -2.9173    1.0000 </r>
       <r>   -2.8612    1.0000 </r>
       <r>   -2.8456    1.0000 </r>
       <r>   -2.8079    1.0000 </r>
       <r>   -2.7959    1.0000 </r>
       <r>   -2.7828    1.0000 </r>
       <r>   -2.7592    1.0000 </r>
       <r>   -2.7563    1.0000 </r>
       <r>   -2.7525    1.0000 </r>
       <r>   -2.7272    1.0000 </r>
       <r>   -2.6734    1.0000 </r>
       <r>   -2.6418    1.0000 </r>
       <r>   -2.6337    1.0000 </r>
       <r>   -2.6272    1.0000 </r>
       <r>   -2.5950    1.0000 </r>
       <r>   -2.5937    1.0000 </r>
       <r>   -2.5780    1.0000 </r>
       <r>   -2.5741    1.0000 </r>
       <r>   -2.5536    1.0000 </r>
       <r>   -2.5325    1.0000 </r>
       <r>   -2.5235    1.0000 </r>
       <r>   -2.5182    1.0000 </r>
       <r>   -2.5089    1.0000 </r>
       <r>   -2.5021    1.0000 </r>
       <r>   -2.4842    1.0000 </r>
       <r>   -2.4555    1.0000 </r>
       <r>   -2.4499    1.0000 </r>
       <r>   -2.4322    1.0000 </r>
       <r>   -2.3822    1.0000 </r>
       <r>   -2.3692    1.0000 </r>
       <r>   -2.3581    1.0000 </r>
       <r>   -2.3460    1.0000 </r>
       <r>   -2.3389    1.0000 </r>
       <r>   -2.3255    1.0000 </r>
       <r>   -2.3140    1.0000 </r>
       <r>   -2.3020    1.0000 </r>
       <r>   -2.2742    1.0000 </r>
       <r>   -2.2634    1.0000 </r>
       <r>   -2.2417    1.0000 </r>
       <r>   -2.2361    1.0000 </r>
       <r>   -2.2284    1.0000 </r>
       <r>   -2.2212    1.0000 </r>
       <r>   -2.1895    1.0000 </r>
       <r>   -2.1857    1.0000 </r>
       <r>   -2.1647    1.0000 </r>
       <r>   -2.1523    1.0000 </r>
       <r>   -2.1089    1.0000 </r>
       <r>   -2.0929    1.0000 </r>
       <r>   -2.0432    1.0000 </r>
       <r>   -2.0284    1.0000 </r>
       <r>   -2.0147    1.0000 </r>
       <r>   -2.0013    1.0000 </r>
       <r>   -1.9907    1.0000 </r>
       <r>   -1.9867    1.0000 </r>
       <r>   -1.9788    1.0000 </r>
       <r>   -1.9483    1.0000 </r>
       <r>   -1.9413    1.0000 </r>
       <r>   -1.9338    1.0000 </r>
       <r>   -1.9171    1.0000 </r>
       <r>   -1.8976    1.0000 </r>
       <r>   -1.8692    1.0000 </r>
       <r>   -1.8453    1.0000 </r>
       <r>   -1.8414    1.0000 </r>
       <r>   -1.8033    1.0000 </r>
       <r>   -1.7822    1.0000 </r>
       <r>   -1.7658    1.0000 </r>
       <r>   -1.7499    1.0000 </r>
       <r>   -1.7345    1.0000 </r>
       <r>   -1.7078    1.0000 </r>
       <r>   -1.6472    1.0000 </r>
       <r>   -1.6471    1.0000 </r>
       <r>   -1.6258    1.0000 </r>
       <r>   -1.6198    1.0000 </r>
       <r>   -1.5121    1.0000 </r>
       <r>   -1.5054    1.0000 </r>
       <r>   -1.4694    1.0000 </r>
       <r>   -1.4133    1.0000 </r>
       <r>   -1.4063    1.0000 </r>
       <r>   -1.3646    1.0000 </r>
       <r>   -1.3598    1.0000 </r>
       <r>   -1.3429    1.0000 </r>
       <r>   -1.3112    1.0000 </r>
       <r>   -1.1994    1.0000 </r>
       <r>   -1.1839    1.0000 </r>
       <r>   -1.1754    1.0000 </r>
       <r>   -1.1233    1.0000 </r>
       <r>   -1.1064    1.0000 </r>
       <r>   -1.0894    1.0000 </r>
       <r>   -1.0800    1.0000 </r>
       <r>   -1.0581    1.0000 </r>
       <r>   -1.0039    1.0000 </r>
       <r>   -0.9753    1.0000 </r>
       <r>   -0.9671    1.0000 </r>
       <r>   -0.9221    1.0000 </r>
       <r>   -0.9045    1.0000 </r>
       <r>   -0.9038    1.0000 </r>
       <r>   -0.8888    1.0000 </r>
       <r>   -0.8792    1.0000 </r>
       <r>   -0.8706    1.0000 </r>
       <r>   -0.8573    1.0000 </r>
       <r>   -0.8447    1.0000 </r>
       <r>   -0.8203    1.0000 </r>
       <r>   -0.7921    1.0000 </r>
       <r>   -0.7381    1.0000 </r>
       <r>   -0.7366    1.0000 </r>
       <r>   -0.7124    1.0000 </r>
       <r>   -0.6807    1.0000 </r>
       <r>   -0.6638    1.0000 </r>
       <r>   -0.6434    1.0000 </r>
       <r>   -0.6279    1.0000 </r>
       <r>   -0.6162    1.0000 </r>
       <r>   -0.6050    1.0000 </r>
       <r>   -0.5879    1.0000 </r>
       <r>   -0.5422    1.0000 </r>
       <r>   -0.5193    1.0000 </r>
       <r>   -0.5070    1.0000 </r>
       <r>   -0.4869    1.0000 </r>
       <r>   -0.4850    1.0000 </r>
       <r>   -0.3929    1.0000 </r>
       <r>   -0.3860    1.0000 </r>
       <r>   -0.3771    1.0000 </r>
       <r>   -0.3598    1.0000 </r>
       <r>   -0.3236    1.0000 </r>
       <r>   -0.2957    1.0000 </r>
       <r>   -0.2522    1.0000 </r>
       <r>   -0.2480    1.0000 </r>
       <r>   -0.2059    1.0000 </r>
       <r>   -0.1857    1.0000 </r>
       <r>   -0.1345    1.0000 </r>
       <r>   -0.1127    1.0000 </r>
       <r>   -0.0905    1.0000 </r>
       <r>   -0.0883    1.0000 </r>
       <r>   -0.0654    1.0000 </r>
       <r>   -0.0592    1.0000 </r>
       <r>   -0.0364    1.0000 </r>
       <r>    0.0176    1.0000 </r>
       <r>    0.0293    1.0000 </r>
       <r>    0.0442    1.0000 </r>
       <r>    0.0503    1.0000 </r>
       <r>    0.0634    1.0000 </r>
       <r>    0.0794    1.0000 </r>
       <r>    0.0873    1.0000 </r>
       <r>    0.1076    1.0000 </r>
       <r>    0.1375    1.0000 </r>
       <r>    0.1381    1.0000 </r>
       <r>    0.1706    1.0000 </r>
       <r>    0.1934    1.0001 </r>
       <r>    0.2133    1.0001 </r>
       <r>    0.2369    1.0003 </r>
       <r>    0.2687    1.0006 </r>
       <r>    0.2809    1.0008 </r>
       <r>    0.2974    1.0011 </r>
       <r>    0.3067    1.0014 </r>
       <r>    0.3175    1.0018 </r>
       <r>    0.3707    1.0050 </r>
       <r>    0.3957    1.0077 </r>
       <r>    0.3963    1.0078 </r>
       <r>    0.4066    1.0092 </r>
       <r>    0.4271    1.0125 </r>
       <r>    0.4417    1.0152 </r>
       <r>    0.4694    1.0211 </r>
       <r>    0.5167    1.0316 </r>
       <r>    0.5353    1.0344 </r>
       <r>    0.5418    1.0350 </r>
       <r>    0.5471    1.0353 </r>
       <r>    0.5627    1.0351 </r>
       <r>    0.5714    1.0339 </r>
       <r>    0.5796    1.0322 </r>
       <r>    0.5874    1.0297 </r>
       <r>    0.5913    1.0282 </r>
       <r>    0.6072    1.0195 </r>
       <r>    0.6290    1.0004 </r>
       <r>    0.6311    0.9981 </r>
       <r>    0.6349    0.9936 </r>
       <r>    0.6704    0.9359 </r>
       <r>    0.6884    0.8948 </r>
       <r>    0.7086    0.8389 </r>
       <r>    0.7191    0.8061 </r>
       <r>    0.7258    0.7838 </r>
       <r>    0.7853    0.5524 </r>
       <r>    0.7964    0.5056 </r>
       <r>    0.8033    0.4766 </r>
       <r>    0.8368    0.3382 </r>
       <r>    0.8506    0.2849 </r>
       <r>    0.8508    0.2839 </r>
       <r>    0.8727    0.2061 </r>
       <r>    0.8799    0.1829 </r>
       <r>    0.9010    0.1211 </r>
       <r>    0.9026    0.1169 </r>
       <r>    0.9184    0.0785 </r>
       <r>    0.9690   -0.0030 </r>
       <r>    0.9985   -0.0255 </r>
       <r>    1.0357   -0.0353 </r>
       <r>    1.0495   -0.0353 </r>
       <r>    1.0613   -0.0343 </r>
       <r>    1.0996   -0.0272 </r>
       <r>    1.1088   -0.0251 </r>
       <r>    1.2199   -0.0055 </r>
       <r>    1.2801   -0.0017 </r>
       <r>    1.4301   -0.0000 </r>
       <r>    1.6674   -0.0000 </r>
       <r>    1.6714   -0.0000 </r>
       <r>    1.9150   -0.0000 </r>
       <r>    2.1127   -0.0000 </r>
       <r>    2.1522   -0.0000 </r>
       <r>    2.2375   -0.0000 </r>
       <r>    2.5585   -0.0000 </r>
       <r>    2.8108   -0.0000 </r>
       <r>    2.9958   -0.0000 </r>
       <r>    3.2347   -0.0000 </r>
       <r>    3.6888   -0.0000 </r>
       <r>    3.7390   -0.0000 </r>
       <r>    4.0796   -0.0000 </r>
       <r>    4.2071   -0.0000 </r>
       <r>    4.2105   -0.0000 </r>
       <r>    4.2751   -0.0000 </r>
       <r>    4.5547   -0.0000 </r>
       <r>    4.6309   -0.0000 </r>
       <r>    4.7802   -0.0000 </r>
       <r>    4.8814   -0.0000 </r>
       <r>    5.3032   -0.0000 </r>
       <r>    5.3710   -0.0000 </r>
       <r>    5.4679   -0.0000 </r>
       <r>    5.4922   -0.0000 </r>
       <r>    5.6088   -0.0000 </r>
       <r>    5.6277   -0.0000 </r>
       <r>    5.6973   -0.0000 </r>
       <r>    5.9002   -0.0000 </r>
       <r>    5.9656   -0.0000 </r>
       <r>    6.1303   -0.0000 </r>
      </set>
      <set comment="kpoint 3">
       <r>  -18.7334    1.0000 </r>
       <r>   -8.4042    1.0000 </r>
       <r>   -7.6942    1.0000 </r>
       <r>   -6.8039    1.0000 </r>
       <r>   -6.5811    1.0000 </r>
       <r>   -6.1965    1.0000 </r>
       <r>   -6.1842    1.0000 </r>
       <r>   -6.1166    1.0000 </r>
       <r>   -6.0609    1.0000 </r>
       <r>   -5.9821    1.0000 </r>
       <r>   -5.8824    1.0000 </r>
       <r>   -5.7979    1.0000 </r>
       <r>   -5.7649    1.0000 </r>
       <r>   -5.7449    1.0000 </r>
       <r>   -5.7353    1.0000 </r>
       <r>   -5.6618    1.0000 </r>
       <r>   -5.6376    1.0000 </r>
       <r>   -5.5942    1.0000 </r>
       <r>   -5.4366    1.0000 </r>
       <r>   -5.3679    1.0000 </r>
       <r>   -5.3295    1.0000 </r>
       <r>   -5.3248    1.0000 </r>
       <r>   -5.3006    1.0000 </r>
       <r>   -5.2445    1.0000 </r>
       <r>   -5.2302    1.0000 </r>
       <r>   -5.2201    1.0000 </r>
       <r>   -5.1550    1.0000 </r>
       <r>   -5.1113    1.0000 </r>
       <r>   -5.0359    1.0000 </r>
       <r>   -4.9686    1.0000 </r>
       <r>   -4.9305    1.0000 </r>
       <r>   -4.9175    1.0000 </r>
       <r>   -4.8889    1.0000 </r>
       <r>   -4.8105    1.0000 </r>
       <r>   -4.7974    1.0000 </r>
       <r>   -4.7797    1.0000 </r>
       <r>   -4.7717    1.0000 </r>
       <r>   -4.6894    1.0000 </r>
       <r>   -4.6886    1.0000 </r>
       <r>   -4.6215    1.0000 </r>
       <r>   -4.5977    1.0000 </r>
       <r>   -4.5958    1.0000 </r>
       <r>   -4.5731    1.0000 </r>
       <r>   -4.5342    1.0000 </r>
       <r>   -4.5113    1.0000 </r>
       <r>   -4.4719    1.0000 </r>
       <r>   -4.4633    1.0000 </r>
       <r>   -4.4531    1.0000 </r>
       <r>   -4.4143    1.0000 </r>
       <r>   -4.4015    1.0000 </r>
       <r>   -4.3863    1.0000 </r>
       <r>   -4.3499    1.0000 </r>
       <r>   -4.3456    1.0000 </r>
       <r>   -4.3137    1.0000 </r>
       <r>   -4.2938    1.0000 </r>
       <r>   -4.2689    1.0000 </r>
       <r>   -4.2679    1.0000 </r>
       <r>   -4.2216    1.0000 </r>
       <r>   -4.2118    1.0000 </r>
       <r>   -4.1938    1.0000 </r>
       <r>   -4.1243    1.0000 </r>
       <r>   -4.0869    1.0000 </r>
       <r>   -4.0120    1.0000 </r>
       <r>   -4.0069    1.0000 </r>
       <r>   -4.0041    1.0000 </r>
       <r>   -3.9984    1.0000 </r>
       <r>   -3.9910    1.0000 </r>
       <r>   -3.9279    1.0000 </r>
       <r>   -3.8358    1.0000 </r>
       <r>   -3.8039    1.0000 </r>
       <r>   -3.7534    1.0000 </r>
       <r>   -3.7388    1.0000 </r>
       <r>   -3.6962    1.0000 </r>
       <r>   -3.6882    1.0000 </r>
       <r>   -3.6614    1.0000 </r>
       <r>   -3.6587    1.0000 </r>
       <r>   -3.6147    1.0000 </r>
       <r>   -3.6050    1.0000 </r>
       <r>   -3.5489    1.0000 </r>
       <r>   -3.5479    1.0000 </r>
       <r>   -3.4784    1.0000 </r>
       <r>   -3.4302    1.0000 </r>
       <r>   -3.4198    1.0000 </r>
       <r>   -3.3540    1.0000 </r>
       <r>   -3.3374    1.0000 </r>
       <r>   -3.3101    1.0000 </r>
       <r>   -3.2062    1.0000 </r>
       <r>   -3.2039    1.0000 </r>
       <r>   -3.1703    1.0000 </r>
       <r>   -3.1598    1.0000 </r>
       <r>   -3.1479    1.0000 </r>
       <r>   -3.1350    1.0000 </r>
       <r>   -3.0745    1.0000 </r>
       <r>   -3.0578    1.0000 </r>
       <r>   -3.0397    1.0000 </r>
       <r>   -3.0107    1.0000 </r>
       <r>   -3.0089    1.0000 </r>
       <r>   -2.9667    1.0000 </r>
       <r>   -2.9172    1.0000 </r>
       <r>   -2.8611    1.0000 </r>
       <r>   -2.8460    1.0000 </r>
       <r>   -2.8088    1.0000 </r>
       <r>   -2.7959    1.0000 </r>
       <r>   -2.7836    1.0000 </r>
       <r>   -2.7594    1.0000 </r>
       <r>   -2.7563    1.0000 </r>
       <r>   -2.7531    1.0000 </r>
       <r>   -2.7299    1.0000 </r>
       <r>   -2.6736    1.0000 </r>
       <r>   -2.6402    1.0000 </r>
       <r>   -2.6334    1.0000 </r>
       <r>   -2.6280    1.0000 </r>
       <r>   -2.5942    1.0000 </r>
       <r>   -2.5917    1.0000 </r>
       <r>   -2.5770    1.0000 </r>
       <r>   -2.5731    1.0000 </r>
       <r>   -2.5537    1.0000 </r>
       <r>   -2.5327    1.0000 </r>
       <r>   -2.5240    1.0000 </r>
       <r>   -2.5187    1.0000 </r>
       <r>   -2.5101    1.0000 </r>
       <r>   -2.5020    1.0000 </r>
       <r>   -2.4854    1.0000 </r>
       <r>   -2.4560    1.0000 </r>
       <r>   -2.4495    1.0000 </r>
       <r>   -2.4326    1.0000 </r>
       <r>   -2.3828    1.0000 </r>
       <r>   -2.3701    1.0000 </r>
       <r>   -2.3575    1.0000 </r>
       <r>   -2.3452    1.0000 </r>
       <r>   -2.3368    1.0000 </r>
       <r>   -2.3261    1.0000 </r>
       <r>   -2.3143    1.0000 </r>
       <r>   -2.3017    1.0000 </r>
       <r>   -2.2731    1.0000 </r>
       <r>   -2.2630    1.0000 </r>
       <r>   -2.2409    1.0000 </r>
       <r>   -2.2345    1.0000 </r>
       <r>   -2.2285    1.0000 </r>
       <r>   -2.2210    1.0000 </r>
       <r>   -2.1892    1.0000 </r>
       <r>   -2.1856    1.0000 </r>
       <r>   -2.1661    1.0000 </r>
       <r>   -2.1537    1.0000 </r>
       <r>   -2.1094    1.0000 </r>
       <r>   -2.0934    1.0000 </r>
       <r>   -2.0430    1.0000 </r>
       <r>   -2.0282    1.0000 </r>
       <r>   -2.0155    1.0000 </r>
       <r>   -2.0002    1.0000 </r>
       <r>   -1.9904    1.0000 </r>
       <r>   -1.9864    1.0000 </r>
       <r>   -1.9787    1.0000 </r>
       <r>   -1.9479    1.0000 </r>
       <r>   -1.9409    1.0000 </r>
       <r>   -1.9331    1.0000 </r>
       <r>   -1.9159    1.0000 </r>
       <r>   -1.8993    1.0000 </r>
       <r>   -1.8700    1.0000 </r>
       <r>   -1.8449    1.0000 </r>
       <r>   -1.8412    1.0000 </r>
       <r>   -1.8038    1.0000 </r>
       <r>   -1.7820    1.0000 </r>
       <r>   -1.7657    1.0000 </r>
       <r>   -1.7499    1.0000 </r>
       <r>   -1.7336    1.0000 </r>
       <r>   -1.7079    1.0000 </r>
       <r>   -1.6472    1.0000 </r>
       <r>   -1.6471    1.0000 </r>
       <r>   -1.6259    1.0000 </r>
       <r>   -1.6204    1.0000 </r>
       <r>   -1.5114    1.0000 </r>
       <r>   -1.5060    1.0000 </r>
       <r>   -1.4682    1.0000 </r>
       <r>   -1.4125    1.0000 </r>
[...]
       <r>   -18.5190     2.4002     2.0621 </r>
       <r>   -18.4227    -0.1204     2.0505 </r>
       <r>   -18.3265    -0.3760     2.0143 </r>
       <r>   -18.2302    -0.1260     2.0022 </r>
       <r>   -18.1339    -0.0204     2.0002 </r>
       <r>   -18.0376    -0.0019     2.0000 </r>
       <r>   -17.9413    -0.0001     2.0000 </r>
       <r>   -17.8450    -0.0000     2.0000 </r>
       <r>   -17.7487    -0.0000     2.0000 </r>
       <r>   -17.6525    -0.0000     2.0000 </r>
       <r>   -17.5562    -0.0000     2.0000 </r>
       <r>   -17.4599    -0.0000     2.0000 </r>
       <r>   -17.3636     0.0000     2.0000 </r>
       <r>   -17.2673     0.0000     2.0000 </r>
       <r>   -17.1710     0.0000     2.0000 </r>
       <r>   -17.0747     0.0000     2.0000 </r>
       <r>   -16.9784     0.0000     2.0000 </r>
       <r>   -16.8822     0.0000     2.0000 </r>
       <r>   -16.7859     0.0000     2.0000 </r>
       <r>   -16.6896     0.0000     2.0000 </r>
       <r>   -16.5933     0.0000     2.0000 </r>
       <r>   -16.4970     0.0000     2.0000 </r>
       <r>   -16.4007     0.0000     2.0000 </r>
       <r>   -16.3044     0.0000     2.0000 </r>
       <r>   -16.2081     0.0000     2.0000 </r>
       <r>   -16.1119     0.0000     2.0000 </r>
       <r>   -16.0156     0.0000     2.0000 </r>
       <r>   -15.9193     0.0000     2.0000 </r>
       <r>   -15.8230     0.0000     2.0000 </r>
       <r>   -15.7267     0.0000     2.0000 </r>
       <r>   -15.6304     0.0000     2.0000 </r>
       <r>   -15.5341     0.0000     2.0000 </r>
       <r>   -15.4378     0.0000     2.0000 </r>
       <r>   -15.3416     0.0000     2.0000 </r>
       <r>   -15.2453     0.0000     2.0000 </r>
       <r>   -15.1490     0.0000     2.0000 </r>
       <r>   -15.0527     0.0000     2.0000 </r>
       <r>   -14.9564     0.0000     2.0000 </r>
       <r>   -14.8601     0.0000     2.0000 </r>
       <r>   -14.7638     0.0000     2.0000 </r>
       <r>   -14.6676     0.0000     2.0000 </r>
       <r>   -14.5713     0.0000     2.0000 </r>
       <r>   -14.4750     0.0000     2.0000 </r>
       <r>   -14.3787     0.0000     2.0000 </r>
       <r>   -14.2824     0.0000     2.0000 </r>
       <r>   -14.1861     0.0000     2.0000 </r>
       <r>   -14.0898     0.0000     2.0000 </r>
       <r>   -13.9935     0.0000     2.0000 </r>
       <r>   -13.8973     0.0000     2.0000 </r>
       <r>   -13.8010     0.0000     2.0000 </r>
       <r>   -13.7047     0.0000     2.0000 </r>
       <r>   -13.6084     0.0000     2.0000 </r>
       <r>   -13.5121     0.0000     2.0000 </r>
       <r>   -13.4158     0.0000     2.0000 </r>
       <r>   -13.3195     0.0000     2.0000 </r>
       <r>   -13.2232     0.0000     2.0000 </r>
       <r>   -13.1270     0.0000     2.0000 </r>
       <r>   -13.0307     0.0000     2.0000 </r>
       <r>   -12.9344     0.0000     2.0000 </r>
       <r>   -12.8381     0.0000     2.0000 </r>
       <r>   -12.7418     0.0000     2.0000 </r>
       <r>   -12.6455     0.0000     2.0000 </r>
       <r>   -12.5492     0.0000     2.0000 </r>
       <r>   -12.4529     0.0000     2.0000 </r>
       <r>   -12.3567     0.0000     2.0000 </r>
       <r>   -12.2604     0.0000     2.0000 </r>
       <r>   -12.1641     0.0000     2.0000 </r>
       <r>   -12.0678     0.0000     2.0000 </r>
       <r>   -11.9715     0.0000     2.0000 </r>
       <r>   -11.8752     0.0000     2.0000 </r>
       <r>   -11.7789     0.0000     2.0000 </r>
       <r>   -11.6827     0.0000     2.0000 </r>
       <r>   -11.5864     0.0000     2.0000 </r>
       <r>   -11.4901     0.0000     2.0000 </r>
       <r>   -11.3938     0.0000     2.0000 </r>
       <r>   -11.2975     0.0000     2.0000 </r>
       <r>   -11.2012     0.0000     2.0000 </r>
       <r>   -11.1049     0.0000     2.0000 </r>
       <r>   -11.0086     0.0000     2.0000 </r>
       <r>   -10.9124     0.0000     2.0000 </r>
       <r>   -10.8161     0.0000     2.0000 </r>
       <r>   -10.7198     0.0000     2.0000 </r>
       <r>   -10.6235     0.0000     2.0000 </r>
       <r>   -10.5272     0.0000     2.0000 </r>
       <r>   -10.4309     0.0000     2.0000 </r>
       <r>   -10.3346     0.0000     2.0000 </r>
       <r>   -10.2383    -0.0000     2.0000 </r>
       <r>   -10.1421    -0.0000     2.0000 </r>
       <r>   -10.0458    -0.0000     2.0000 </r>
       <r>    -9.9495    -0.0000     2.0000 </r>
       <r>    -9.8532    -0.0000     2.0000 </r>
       <r>    -9.7569    -0.0000     2.0000 </r>
       <r>    -9.6606    -0.0000     2.0000 </r>
       <r>    -9.5643    -0.0000     2.0000 </r>
       <r>    -9.4680    -0.0000     2.0000 </r>
       <r>    -9.3718    -0.0000     2.0000 </r>
       <r>    -9.2755    -0.0000     2.0000 </r>
       <r>    -9.1792    -0.0000     2.0000 </r>
       <r>    -9.0829    -0.0005     1.9999 </r>
       <r>    -8.9866    -0.0040     1.9996 </r>
       <r>    -8.8903    -0.0193     1.9977 </r>
       <r>    -8.7940    -0.0525     1.9927 </r>
       <r>    -8.6978    -0.0422     1.9886 </r>
       <r>    -8.6015     0.2444     2.0121 </r>
       <r>    -8.5052     1.0394     2.1122 </r>
       <r>    -8.4089     1.8672     2.2920 </r>
       <r>    -8.3126     1.8280     2.4680 </r>
       <r>    -8.2163     1.4817     2.6107 </r>
       <r>    -8.1200     2.0821     2.8112 </r>
       <r>    -8.0237     2.9634     3.0965 </r>
       <r>    -7.9275     2.7527     3.3615 </r>
       <r>    -7.8312     1.9105     3.5455 </r>
       <r>    -7.7349     2.1880     3.7562 </r>
       <r>    -7.6386     3.9222     4.1338 </r>
       <r>    -7.5423     5.4087     4.6546 </r>
       <r>    -7.4460     5.7273     5.2061 </r>
       <r>    -7.3497     5.5734     5.7427 </r>
       <r>    -7.2534     4.5100     6.1770 </r>
       <r>    -7.1572     2.2161     6.3904 </r>
       <r>    -7.0609     1.6754     6.5517 </r>
       <r>    -6.9646     5.4243     7.0740 </r>
       <r>    -6.8683    10.2065     8.0567 </r>
       <r>    -6.7720    10.6805     9.0851 </r>
       <r>    -6.6757     7.5341     9.8105 </r>
       <r>    -6.5794     5.2978    10.3206 </r>
       <r>    -6.4831     5.2773    10.8288 </r>
       <r>    -6.3869     6.9860    11.5014 </r>
       <r>    -6.2906    10.6874    12.5305 </r>
       <r>    -6.1943    14.9875    13.9736 </r>
       <r>    -6.0980    17.1506    15.6250 </r>
       <r>    -6.0017    17.6265    17.3222 </r>
       <r>    -5.9054    19.4483    19.1948 </r>
       <r>    -5.8091    24.1659    21.5217 </r>
       <r>    -5.7128    29.9505    24.4055 </r>
       <r>    -5.6166    32.9825    27.5813 </r>
       <r>    -5.5203    34.3772    30.8914 </r>
       <r>    -5.4240    38.8874    34.6358 </r>
       <r>    -5.3277    45.4789    39.0148 </r>
       <r>    -5.2314    50.7549    43.9018 </r>
       <r>    -5.1351    55.3719    49.2334 </r>
       <r>    -5.0388    61.3651    55.1421 </r>
       <r>    -4.9426    68.2920    61.7177 </r>
       <r>    -4.8463    70.6403    68.5195 </r>
       <r>    -4.7500    65.9316    74.8678 </r>
       <r>    -4.6537    62.4969    80.8855 </r>
       <r>    -4.5574    69.8472    87.6109 </r>
       <r>    -4.4611    83.1373    95.6159 </r>
       <r>    -4.3648    87.1328   104.0057 </r>
       <r>    -4.2685    78.5861   111.5725 </r>
       <r>    -4.1723    66.5038   117.9760 </r>
       <r>    -4.0760    57.7797   123.5394 </r>
       <r>    -3.9797    54.2255   128.7606 </r>
       <r>    -3.8834    54.7613   134.0334 </r>
       <r>    -3.7871    60.0717   139.8176 </r>
       <r>    -3.6908    67.9483   146.3601 </r>
       <r>    -3.5945    70.8715   153.1841 </r>
       <r>    -3.4982    69.6845   159.8938 </r>
       <r>    -3.4020    72.4986   166.8745 </r>
       <r>    -3.3057    77.7283   174.3588 </r>
       <r>    -3.2094    81.1507   182.1725 </r>
       <r>    -3.1131    83.4811   190.2107 </r>
       <r>    -3.0168    81.8737   198.0941 </r>
       <r>    -2.9205    77.8586   205.5909 </r>
       <r>    -2.8242    79.4566   213.2415 </r>
       <r>    -2.7279    88.3198   221.7456 </r>
       <r>    -2.6317    99.5892   231.3347 </r>
       <r>    -2.5354   110.1500   241.9407 </r>
       <r>    -2.4391   116.9180   253.1984 </r>
       <r>    -2.3428   117.5550   264.5175 </r>
       <r>    -2.2465   115.3381   275.6230 </r>
       <r>    -2.1502   112.0089   286.4080 </r>
       <r>    -2.0539   108.5096   296.8561 </r>
       <r>    -1.9577   109.8219   307.4306 </r>
       <r>    -1.8614   111.7251   318.1883 </r>
       <r>    -1.7651   102.3107   328.0395 </r>
       <r>    -1.6688    81.7876   335.9146 </r>
       <r>    -1.5725    64.2777   342.1037 </r>
       <r>    -1.4762    61.2924   348.0053 </r>
       <r>    -1.3799    68.4090   354.5922 </r>
       <r>    -1.2836    76.5434   361.9624 </r>
       <r>    -1.1874    86.1127   370.2539 </r>
       <r>    -1.0911    96.0095   379.4984 </r>
       <r>    -0.9948    98.6520   388.9973 </r>
       <r>    -0.8985    91.5474   397.8122 </r>
       <r>    -0.8022    79.8362   405.4994 </r>
       <r>    -0.7059    73.0341   412.5316 </r>
       <r>    -0.6096    75.3561   419.7874 </r>
       <r>    -0.5133    79.8703   427.4779 </r>
       <r>    -0.4171    82.2139   435.3940 </r>
       <r>    -0.3208    84.7876   443.5580 </r>
       <r>    -0.2245    86.8948   451.9248 </r>
       <r>    -0.1282    84.4659   460.0578 </r>
       <r>    -0.0319    78.5465   467.6208 </r>
       <r>     0.0644    75.6491   474.9049 </r>
       <r>     0.1607    77.4915   482.3663 </r>
       <r>     0.2570    80.5896   490.1260 </r>
       <r>     0.3532    83.6420   498.1797 </r>
       <r>     0.4495    89.1139   506.7602 </r>
       <r>     0.5458   101.5331   516.5365 </r>
       <r>     0.6421   116.2885   527.7336 </r>
       <r>     0.7384   119.9873   539.2869 </r>
       <r>     0.8347   110.3934   549.9163 </r>
       <r>     0.9310    95.5284   559.1145 </r>
       <r>     1.0272    81.9310   567.0034 </r>
       <r>     1.1235    69.8189   573.7260 </r>
       <r>     1.2198    52.5914   578.7899 </r>
       <r>     1.3161    31.7029   581.8425 </r>
       <r>     1.4124    17.1160   583.4906 </r>
       <r>     1.5087    12.2427   584.6694 </r>
       <r>     1.6050    13.6919   585.9877 </r>
       <r>     1.7013    15.9261   587.5212 </r>
       <r>     1.7975    14.5037   588.9177 </r>
       <r>     1.8938    11.5136   590.0263 </r>
       <r>     1.9901    12.1984   591.2009 </r>
       <r>     2.0864    18.2986   592.9628 </r>
       <r>     2.1827    26.0443   595.4706 </r>
       <r>     2.2790    28.0988   598.1761 </r>
       <r>     2.3753    22.8878   600.3799 </r>
       <r>     2.4716    16.4808   601.9668 </r>
       <r>     2.5678    13.2638   603.2439 </r>
       <r>     2.6641    12.3040   604.4286 </r>
       <r>     2.7604    11.0454   605.4922 </r>
       <r>     2.8567    10.5513   606.5081 </r>
       <r>     2.9530    13.7595   607.8330 </r>
       <r>     3.0493    18.9315   609.6559 </r>
       <r>     3.1456    20.6814   611.6472 </r>
       <r>     3.2419    17.8762   613.3685 </r>
       <r>     3.3381    15.8068   614.8904 </r>
       <r>     3.4344    16.5758   616.4865 </r>
       <r>     3.5307    16.8486   618.1088 </r>
       <r>     3.6270    16.9186   619.7378 </r>
       <r>     3.7233    18.6527   621.5339 </r>
       <r>     3.8196    19.0179   623.3650 </r>
       <r>     3.9159    15.9307   624.8990 </r>
       <r>     4.0121    12.7308   626.1248 </r>
       <r>     4.1084    13.4947   627.4241 </r>
       <r>     4.2047    17.5651   629.1154 </r>
       <r>     4.3010    19.1621   630.9605 </r>
       <r>     4.3973    15.7984   632.4817 </r>
       <r>     4.4936    12.5360   633.6887 </r>
       <r>     4.5899    13.6085   634.9990 </r>
       <r>     4.6862    16.6313   636.6004 </r>
       <r>     4.7824    17.5605   638.2913 </r>
       <r>     4.8787    16.0155   639.8334 </r>
       <r>     4.9750    13.1489   641.0994 </r>
       <r>     5.0713    10.7378   642.1334 </r>
       <r>     5.1676    11.7628   643.2660 </r>
       <r>     5.2639    16.1729   644.8232 </r>
       <r>     5.3602    18.8562   646.6388 </r>
       <r>     5.4565    16.8117   648.2576 </r>
       <r>     5.5527    13.4023   649.5480 </r>
       <r>     5.6490    11.2493   650.6312 </r>
       <r>     5.7453     9.1539   651.5126 </r>
       <r>     5.8416     7.6009   652.2445 </r>
       <r>     5.9379     8.5257   653.0654 </r>
       <r>     6.0342    10.7308   654.0986 </r>
       <r>     6.1305    10.8241   655.1408 </r>
       <r>     6.2268     7.2052   655.8346 </r>
       <r>     6.3230     2.4236   656.0680 </r>
       <r>     6.4193    -0.1086   656.0575 </r>
       <r>     6.5156    -0.4116   656.0179 </r>
       <r>     6.6119    -0.1542   656.0030 </r>
       <r>     6.7082    -0.0284   656.0003 </r>
       <r>     6.8045    -0.0030   656.0000 </r>
       <r>     6.9008    -0.0002   656.0000 </r>
       <r>     6.9971    -0.0000   656.0000 </r>
       <r>     7.0933    -0.0000   656.0000 </r>
       <r>     7.1896    -0.0000   656.0000 </r>
       <r>     7.2859    -0.0000   656.0000 </r>
       <r>     7.3822    -0.0000   656.0000 </r>
       <r>     7.4785     0.0000   656.0000 </r>
       <r>     7.5748     0.0000   656.0000 </r>
       <r>     7.6711     0.0000   656.0000 </r>
       <r>     7.7673     0.0000   656.0000 </r>
       <r>     7.8636     0.0000   656.0000 </r>
       <r>     7.9599     0.0000   656.0000 </r>
       <r>     8.0562     0.0000   656.0000 </r>
       <r>     8.1525     0.0000   656.0000 </r>
      </set>
     </set>
    </array>
   </total>
  </dos>
 </calculation>
 <structure name="finalpos" >
  <crystal>
   <varray name="basis" >
    <v>       8.46376883       0.00000000      -0.00000000 </v>
    <v>      -4.23188442       7.32983882       0.00000000 </v>
    <v>       0.00000000       0.00000000      34.55319157 </v>
   </varray>
   <i name="volume">   2143.61301901 </i>
   <varray name="rec_basis" >
    <v>       0.11815067       0.06821432      -0.00000000 </v>
    <v>      -0.00000000       0.13642865       0.00000000 </v>
    <v>       0.00000000       0.00000000       0.02894089 </v>
   </varray>
  </crystal>
  <varray name="positions" >
   <v>       0.11111111       0.22222222       0.33333333 </v>
   <v>       0.00000000       0.00000000       0.46666667 </v>
   <v>       0.22222222       0.11111111       0.40000000 </v>
   <v>       0.11111111       0.22222222       0.53333333 </v>
   <v>       0.32507847       0.00716811       0.66816773 </v>
   <v>       0.22222222       0.11111111       0.60000000 </v>
   <v>       0.11111111       0.55555556       0.33333333 </v>
   <v>       0.00000000       0.33333333       0.46666667 </v>
   <v>       0.22222222       0.44444444       0.40000000 </v>
   <v>       0.11111111       0.55555556       0.53333333 </v>
   <v>       0.33199322       0.33221874       0.66724897 </v>
   <v>       0.22222222       0.44444444       0.60000000 </v>
   <v>       0.11111111       0.88888889       0.33333333 </v>
   <v>       0.00000000       0.66666667       0.46666667 </v>
   <v>       0.22222222       0.77777778       0.40000000 </v>
   <v>       0.11111111       0.88888889       0.53333333 </v>
   <v>       0.32477028       0.65091246       0.66815240 </v>
   <v>       0.22222222       0.77777778       0.60000000 </v>
   <v>       0.44444444       0.22222222       0.33333333 </v>
   <v>       0.33333333       0.00000000       0.46666667 </v>
   <v>       0.55555556       0.11111111       0.40000000 </v>
   <v>       0.44444444       0.22222222       0.53333333 </v>
   <v>       0.68099699       0.00700706       0.66828216 </v>
   <v>       0.55555556       0.11111111       0.60000000 </v>
   <v>       0.44444444       0.55555556       0.33333333 </v>
   <v>       0.33333333       0.33333333       0.46666667 </v>
   <v>       0.55555556       0.44444444       0.40000000 </v>
   <v>       0.44444444       0.55555556       0.53333333 </v>
   <v>       0.66764340       0.33672144       0.66706230 </v>
   <v>       0.55555556       0.44444444       0.60000000 </v>
   <v>       0.44444444       0.88888889       0.33333333 </v>
   <v>       0.33333333       0.66666667       0.46666667 </v>
   <v>       0.55555556       0.77777778       0.40000000 </v>
   <v>       0.44444444       0.88888889       0.53333333 </v>
   <v>       0.66807251       0.66416037       0.66705983 </v>
   <v>       0.55555556       0.77777778       0.60000000 </v>
   <v>       0.77777778       0.22222222       0.33333333 </v>
   <v>       0.66666667       0.00000000       0.46666667 </v>
   <v>       0.88888889       0.11111111       0.40000000 </v>
   <v>       0.77777778       0.22222222       0.53333333 </v>
   <v>       0.99908838       0.99998620       0.66725833 </v>
   <v>       0.88888889       0.11111111       0.60000000 </v>
   <v>       0.77777778       0.55555556       0.33333333 </v>
   <v>       0.66666667       0.33333333       0.46666667 </v>
   <v>       0.88888889       0.44444444       0.40000000 </v>
   <v>       0.77777778       0.55555556       0.53333333 </v>
   <v>       0.99959767       0.33279281       0.66720646 </v>
   <v>       0.88888889       0.44444444       0.60000000 </v>
   <v>       0.77777778       0.88888889       0.33333333 </v>
   <v>       0.66666667       0.66666667       0.46666667 </v>
   <v>       0.88888889       0.77777778       0.40000000 </v>
   <v>       0.77777778       0.88888889       0.53333333 </v>
   <v>       0.99503181       0.66383501       0.66708210 </v>
   <v>       0.88888889       0.77777778       0.60000000 </v>
   <v>       0.44353292       0.88815002       0.69941425 </v>
  </varray>
  <varray name="selective"  type="logical" >
   <v type="logical" >  F  F  F </v>
   <v type="logical" >  F  F  F </v>
   <v type="logical" >  F  F  F </v>
   <v type="logical" >  F  F  F </v>
   <v type="logical" >  T  T  T </v>
   <v type="logical" >  F  F  F </v>
   <v type="logical" >  F  F  F </v>
   <v type="logical" >  F  F  F </v>
   <v type="logical" >  F  F  F </v>
   <v type="logical" >  F  F  F </v>
   <v type="logical" >  T  T  T </v>
   <v type="logical" >  F  F  F </v>
   <v type="logical" >  F  F  F </v>
   <v type="logical" >  F  F  F </v>
   <v type="logical" >  F  F  F </v>
   <v type="logical" >  F  F  F </v>
   <v type="logical" >  T  T  T </v>
   <v type="logical" >  F  F  F </v>
   <v type="logical" >  F  F  F </v>
   <v type="logical" >  F  F  F </v>
   <v type="logical" >  F  F  F </v>
   <v type="logical" >  F  F  F </v>
   <v type="logical" >  T  T  T </v>
   <v type="logical" >  F  F  F </v>
   <v type="logical" >  F  F  F </v>
   <v type="logical" >  F  F  F </v>
   <v type="logical" >  F  F  F </v>
   <v type="logical" >  F  F  F </v>
   <v type="logical" >  T  T  T </v>
   <v type="logical" >  F  F  F </v>
   <v type="logical" >  F  F  F </v>
   <v type="logical" >  F  F  F </v>
   <v type="logical" >  F  F  F </v>
   <v type="logical" >  F  F  F </v>
   <v type="logical" >  T  T  T </v>
   <v type="logical" >  F  F  F </v>
   <v type="logical" >  F  F  F </v>
   <v type="logical" >  F  F  F </v>
   <v type="logical" >  F  F  F </v>
   <v type="logical" >  F  F  F </v>
   <v type="logical" >  T  T  T </v>
   <v type="logical" >  F  F  F </v>
   <v type="logical" >  F  F  F </v>
   <v type="logical" >  F  F  F </v>
   <v type="logical" >  F  F  F </v>
   <v type="logical" >  F  F  F </v>
   <v type="logical" >  T  T  T </v>
   <v type="logical" >  F  F  F </v>
   <v type="logical" >  F  F  F </v>
   <v type="logical" >  F  F  F </v>
   <v type="logical" >  F  F  F </v>
   <v type="logical" >  F  F  F </v>
   <v type="logical" >  T  T  T </v>
   <v type="logical" >  F  F  F </v>
   <v type="logical" >  T  T  T </v>
  </varray>
  <nose>
   <v>      -3.00000000       0.00000000       0.00010000       0.00010000 </v>
  </nose>
 </structure>
</modeling>
