<?xml version="1.0" encoding="ISO-8859-1"?>
<modeling>
 <generator>
  <i name="program" type="string">vasp </i>
  <i name="version" type="string">6.1.2  </i>
  <i name="subversion" type="string">22Jul20 (build Nov  4 2022 18:23:20) complex                          parallel </i>
  <i name="platform" type="string">LinuxPGI </i>
  <i name="date" type="string">2024 01 31 </i>
  <i name="time" type="string">01:26:47 </i>
 </generator>
 <incar>
  <i type="int" name="IBRION">    -1</i>
  <i name="EDIFFG">     -0.03000000</i>
  <i type="int" name="NSW">     0</i>
  <i type="int" name="ISIF">     0</i>
  <i type="int" name="ISYM">     0</i>
  <i name="SYMPREC">      0.00000000</i>
  <i name="ENCUT">    350.00000000</i>
  <i type="string" name="LREAL"> Auto</i>
  <i type="logical" name="LWAVE"> F  </i>
  <i type="int" name="NCORE">     4</i>
  <i type="logical" name="LAECHG"> T  </i>
  <i type="string" name="GGA"> RP</i>
 </incar>
 <structure name="primitive_cell" >
  <crystal>
   <varray name="basis" >
    <v>       8.46376883       0.00000000      -0.00000000 </v>
    <v>      -4.23188442       7.32983882       0.00000000 </v>
    <v>       0.00000000       0.00000000      34.55319157 </v>
   </varray>
   <i name="volume">   2143.61301901 </i>
   <varray name="rec_basis" >
    <v>       0.11815067       0.06821432      -0.00000000 </v>
    <v>      -0.00000000       0.13642865       0.00000000 </v>
    <v>       0.00000000       0.00000000       0.02894089 </v>
   </varray>
  </crystal>
  <varray name="positions" >
   <v>       0.11111111       0.22222222       0.33333333 </v>
   <v>       0.00000000       0.00000000       0.46666667 </v>
   <v>       0.22222222       0.11111111       0.40000000 </v>
   <v>       0.11111111       0.22222222       0.53333333 </v>
   <v>       0.32691722       0.00828012       0.66764489 </v>
   <v>       0.22222222       0.11111111       0.60000000 </v>
   <v>       0.11111111       0.55555556       0.33333333 </v>
   <v>       0.00000000       0.33333333       0.46666667 </v>
   <v>       0.22222222       0.44444444       0.40000000 </v>
   <v>       0.11111111       0.55555556       0.53333333 </v>
   <v>       0.33054511       0.32919500       0.66639985 </v>
   <v>       0.22222222       0.44444444       0.60000000 </v>
   <v>       0.11111111       0.88888889       0.33333333 </v>
   <v>       0.00000000       0.66666667       0.46666667 </v>
   <v>       0.22222222       0.77777778       0.40000000 </v>
   <v>       0.11111111       0.88888889       0.53333333 </v>
   <v>       0.34047471       0.65644642       0.66763001 </v>
   <v>       0.22222222       0.77777778       0.60000000 </v>
   <v>       0.44444444       0.22222222       0.33333333 </v>
   <v>       0.33333333       0.00000000       0.46666667 </v>
   <v>       0.55555556       0.11111111       0.40000000 </v>
   <v>       0.44444444       0.22222222       0.53333333 </v>
   <v>       0.68087517       0.00653950       0.66765677 </v>
   <v>       0.55555556       0.11111111       0.60000000 </v>
   <v>       0.44444444       0.55555556       0.33333333 </v>
   <v>       0.33333333       0.33333333       0.46666667 </v>
   <v>       0.55555556       0.44444444       0.40000000 </v>
   <v>       0.44444444       0.55555556       0.53333333 </v>
   <v>       0.65840668       0.32130800       0.66708789 </v>
   <v>       0.55555556       0.44444444       0.60000000 </v>
   <v>       0.44444444       0.88888889       0.33333333 </v>
   <v>       0.33333333       0.66666667       0.46666667 </v>
   <v>       0.55555556       0.77777778       0.40000000 </v>
   <v>       0.44444444       0.88888889       0.53333333 </v>
   <v>       0.66051740       0.67089434       0.66714771 </v>
   <v>       0.55555556       0.77777778       0.60000000 </v>
   <v>       0.77777778       0.22222222       0.33333333 </v>
   <v>       0.66666667       0.00000000       0.46666667 </v>
   <v>       0.88888889       0.11111111       0.40000000 </v>
   <v>       0.77777778       0.22222222       0.53333333 </v>
   <v>       0.00100418       0.00393919       0.66657389 </v>
   <v>       0.88888889       0.11111111       0.60000000 </v>
   <v>       0.77777778       0.55555556       0.33333333 </v>
   <v>       0.66666667       0.33333333       0.46666667 </v>
   <v>       0.88888889       0.44444444       0.40000000 </v>
   <v>       0.77777778       0.55555556       0.53333333 </v>
   <v>       0.99309266       0.31798503       0.66759053 </v>
   <v>       0.88888889       0.44444444       0.60000000 </v>
   <v>       0.77777778       0.88888889       0.33333333 </v>
   <v>       0.66666667       0.66666667       0.46666667 </v>
   <v>       0.88888889       0.77777778       0.40000000 </v>
   <v>       0.77777778       0.88888889       0.53333333 </v>
   <v>       0.00567074       0.68289688       0.66783708 </v>
   <v>       0.88888889       0.77777778       0.60000000 </v>
   <v>       0.44924173       0.89649324       0.69973221 </v>
   <v>       0.10772827       0.54605460       0.69998574 </v>
   <v>       0.76883682       0.55228431       0.70067235 </v>
  </varray>
 </structure>
 <varray name="primitive_index" >
  <v type="int" >        1 </v>
  <v type="int" >        2 </v>
  <v type="int" >        3 </v>
  <v type="int" >        4 </v>
  <v type="int" >        5 </v>
  <v type="int" >        6 </v>
  <v type="int" >        7 </v>
  <v type="int" >        8 </v>
  <v type="int" >        9 </v>
  <v type="int" >       10 </v>
  <v type="int" >       11 </v>
  <v type="int" >       12 </v>
  <v type="int" >       13 </v>
  <v type="int" >       14 </v>
  <v type="int" >       15 </v>
  <v type="int" >       16 </v>
  <v type="int" >       17 </v>
  <v type="int" >       18 </v>
  <v type="int" >       19 </v>
  <v type="int" >       20 </v>
  <v type="int" >       21 </v>
  <v type="int" >       22 </v>
  <v type="int" >       23 </v>
  <v type="int" >       24 </v>
  <v type="int" >       25 </v>
  <v type="int" >       26 </v>
  <v type="int" >       27 </v>
  <v type="int" >       28 </v>
  <v type="int" >       29 </v>
  <v type="int" >       30 </v>
  <v type="int" >       31 </v>
  <v type="int" >       32 </v>
  <v type="int" >       33 </v>
  <v type="int" >       34 </v>
  <v type="int" >       35 </v>
  <v type="int" >       36 </v>
  <v type="int" >       37 </v>
  <v type="int" >       38 </v>
  <v type="int" >       39 </v>
  <v type="int" >       40 </v>
  <v type="int" >       41 </v>
  <v type="int" >       42 </v>
  <v type="int" >       43 </v>
  <v type="int" >       44 </v>
  <v type="int" >       45 </v>
  <v type="int" >       46 </v>
  <v type="int" >       47 </v>
  <v type="int" >       48 </v>
  <v type="int" >       49 </v>
  <v type="int" >       50 </v>
  <v type="int" >       51 </v>
  <v type="int" >       52 </v>
  <v type="int" >       53 </v>
  <v type="int" >       54 </v>
  <v type="int" >       55 </v>
  <v type="int" >       56 </v>
  <v type="int" >       57 </v>
 </varray>
 <kpoints>
  <generation param="Monkhorst-Pack">
   <v type="int" name="divisions">       5        5        1 </v>
   <v name="usershift">      0.00000000       0.00000000       0.00000000 </v>
   <v name="genvec1">      0.20000000       0.00000000       0.00000000 </v>
   <v name="genvec2">      0.00000000       0.20000000       0.00000000 </v>
   <v name="genvec3">      0.00000000       0.00000000       1.00000000 </v>
   <v name="shift">      0.00000000       0.00000000       0.00000000 </v>
  </generation>
  <varray name="kpointlist" >
   <v>       0.00000000       0.00000000       0.00000000 </v>
   <v>       0.20000000       0.00000000       0.00000000 </v>
   <v>       0.20000000      -0.20000000       0.00000000 </v>
   <v>       0.00000000      -0.20000000       0.00000000 </v>
   <v>       0.40000000       0.00000000       0.00000000 </v>
   <v>       0.40000000      -0.40000000       0.00000000 </v>
   <v>       0.00000000      -0.40000000       0.00000000 </v>
   <v>       0.20000000       0.20000000       0.00000000 </v>
   <v>       0.40000000      -0.20000000       0.00000000 </v>
   <v>       0.20000000      -0.40000000       0.00000000 </v>
   <v>       0.40000000       0.20000000       0.00000000 </v>
   <v>      -0.40000000      -0.40000000       0.00000000 </v>
   <v>       0.20000000       0.40000000       0.00000000 </v>
  </varray>
  <varray name="weights" >
   <v>       0.04000000 </v>
   <v>       0.08000000 </v>
   <v>       0.08000000 </v>
   <v>       0.08000000 </v>
   <v>       0.08000000 </v>
   <v>       0.08000000 </v>
   <v>       0.08000000 </v>
   <v>       0.08000000 </v>
   <v>       0.08000000 </v>
   <v>       0.08000000 </v>
   <v>       0.08000000 </v>
   <v>       0.08000000 </v>
   <v>       0.08000000 </v>
  </varray>
 </kpoints>
 <parameters>
  <separator name="general" >
   <i type="string" name="SYSTEM">unknown system</i>
   <i type="logical" name="LCOMPAT"> F  </i>
  </separator>
  <separator name="electronic" >
   <i type="string" name="PREC">normal</i>
   <i name="ENMAX">    350.00000000</i>
   <i name="ENAUG">    605.39200000</i>
   <i name="EDIFF">      0.00010000</i>
   <i type="int" name="IALGO">    38</i>
   <i type="int" name="IWAVPR">    10</i>
   <i type="int" name="NBANDS">   334</i>
   <i type="int" name="NBANDSLOW">    -1</i>
   <i type="int" name="NBANDSHIGH">    -1</i>
   <i name="NELECT">    558.00000000</i>
   <i type="int" name="TURBO">     0</i>
   <i type="int" name="IRESTART">     0</i>
   <i type="int" name="NREBOOT">     0</i>
   <i type="int" name="NMIN">     0</i>
   <i name="EREF">      0.00000000</i>
   <separator name="electronic smearing" >
    <i type="int" name="ISMEAR">     1</i>
    <i name="SIGMA">      0.20000000</i>
    <i name="KSPACING">      0.50000000</i>
    <i type="logical" name="KGAMMA"> T  </i>
    <i type="logical" name="KBLOWUP"> T  </i>
   </separator>
   <separator name="electronic projectors" >
    <i type="logical" name="LREAL"> T  </i>
    <v name="ROPT">     -0.00050000     -0.00050000</v>
    <i type="int" name="LMAXPAW">  -100</i>
    <i type="int" name="LMAXMIX">     2</i>
    <i type="logical" name="NLSPLINE"> F  </i>
   </separator>
   <separator name="electronic startup" >
    <i type="int" name="ISTART">     0</i>
    <i type="int" name="ICHARG">     2</i>
    <i type="int" name="INIWAV">     1</i>
   </separator>
   <separator name="electronic spin" >
    <i type="int" name="ISPIN">     1</i>
    <i type="logical" name="LNONCOLLINEAR"> F  </i>
    <v name="MAGMOM">      1.00000000      1.00000000      1.00000000      1.00000000      1.00000000      1.00000000      1.00000000      1.00000000      1.00000000      1.00000000      1.00000000      1.00000000      1.00000000      1.00000000      1.00000000      1.00000000      1.00000000      1.00000000      1.00000000      1.00000000
      1.00000000      1.00000000      1.00000000      1.00000000      1.00000000      1.00000000      1.00000000      1.00000000      1.00000000      1.00000000      1.00000000      1.00000000      1.00000000      1.00000000      1.00000000      1.00000000      1.00000000      1.00000000      1.00000000      1.00000000
      1.00000000      1.00000000      1.00000000      1.00000000      1.00000000      1.00000000      1.00000000      1.00000000      1.00000000      1.00000000      1.00000000      1.00000000      1.00000000      1.00000000      1.00000000      1.00000000      1.00000000</v>
    <i name="NUPDOWN">     -1.00000000</i>
    <i type="logical" name="LSORBIT"> F  </i>
    <v name="SAXIS">      0.00000000      0.00000000      1.00000000</v>
    <i type="logical" name="LSPIRAL"> F  </i>
    <v name="QSPIRAL">      0.00000000      0.00000000      0.00000000</v>
    <i type="logical" name="LZEROZ"> F  </i>
   </separator>
   <separator name="electronic exchange-correlation" >
    <i type="logical" name="LASPH"> F  </i>
    <i type="logical" name="LMETAGGA"> F  </i>
   </separator>
   <separator name="electronic convergence" >
    <i type="int" name="NELM">    60</i>
    <i type="int" name="NELMDL">     0</i>
    <i type="int" name="NELMIN">     2</i>
    <i name="ENINI">    350.00000000</i>
    <separator name="electronic convergence detail" >
     <i type="logical" name="LDIAG"> T  </i>
     <i type="logical" name="LSUBROT"> F  </i>
     <i name="WEIMIN">      0.00000000</i>
     <i name="EBREAK">      0.00000007</i>
     <i name="DEPER">      0.30000000</i>
     <i type="int" name="NRMM">     4</i>
     <i name="TIME">      0.40000000</i>
    </separator>
   </separator>
   <separator name="electronic mixer" >
    <i name="AMIX">      0.40000000</i>
    <i name="BMIX">      1.00000000</i>
    <i name="AMIN">      0.10000000</i>
    <i name="AMIX_MAG">      1.60000000</i>
    <i name="BMIX_MAG">      1.00000000</i>
    <separator name="electronic mixer details" >
     <i type="int" name="IMIX">     4</i>
     <i type="logical" name="MIXFIRST"> F  </i>
     <i type="int" name="MAXMIX">   -45</i>
     <i name="WC">    100.00000000</i>
     <i type="int" name="INIMIX">     1</i>
     <i type="int" name="MIXPRE">     1</i>
     <i type="int" name="MREMOVE">     5</i>
    </separator>
   </separator>
   <separator name="electronic dipolcorrection" >
    <i type="logical" name="LDIPOL"> F  </i>
    <i type="logical" name="LMONO"> F  </i>
    <i type="int" name="IDIPOL">     0</i>
    <i name="EPSILON">      1.00000000</i>
    <v name="DIPOL">   -100.00000000   -100.00000000   -100.00000000</v>
    <i name="EFIELD">      0.00000000</i>
   </separator>
  </separator>
  <separator name="grids" >
   <i type="int" name="NGX">    40</i>
   <i type="int" name="NGY">    40</i>
   <i type="int" name="NGZ">   160</i>
   <i type="int" name="NGXF">    80</i>
   <i type="int" name="NGYF">    80</i>
   <i type="int" name="NGZF">   320</i>
   <i type="logical" name="ADDGRID"> F  </i>
  </separator>
  <separator name="ionic" >
   <i type="int" name="NSW">     0</i>
   <i type="int" name="IBRION">    -1</i>
   <i type="int" name="MDALGO">     0</i>
   <i type="int" name="ISIF">     0</i>
   <i name="PSTRESS">      0.00000000</i>
   <i name="EDIFFG">     -0.03000000</i>
   <i type="int" name="NFREE">     0</i>
   <i name="POTIM">      0.50000000</i>
   <i name="SMASS">     -3.00000000</i>
   <i name="SCALEE">      1.00000000</i>
  </separator>
  <separator name="ionic md" >
   <i name="TEBEG">      0.00010000</i>
   <i name="TEEND">      0.00010000</i>
   <i type="int" name="NBLOCK">     1</i>
   <i type="int" name="KBLOCK">     1</i>
   <i type="int" name="NPACO">   256</i>
   <i name="APACO">     16.00000000</i>
  </separator>
  <separator name="symmetry" >
   <i type="int" name="ISYM">     0</i>
   <i name="SYMPREC">      0.00000000</i>
  </separator>
  <separator name="dos" >
   <i type="int" name="LORBIT">     0</i>
   <v name="RWIGS">     -1.00000000     -1.00000000</v>
   <i type="int" name="NEDOS">   301</i>
   <i name="EMIN">     10.00000000</i>
   <i name="EMAX">    -10.00000000</i>
   <i name="EFERMI">      0.00000000</i>
  </separator>
  <separator name="writing" >
   <i type="int" name="NWRITE">     2</i>
   <i type="logical" name="LWAVE"> F  </i>
   <i type="logical" name="LDOWNSAMPLE"> F  </i>
   <i type="logical" name="LCHARG"> T  </i>
   <i type="logical" name="LPARD"> F  </i>
   <i type="logical" name="LVTOT"> F  </i>
   <i type="logical" name="LVHAR"> F  </i>
   <i type="logical" name="LELF"> F  </i>
   <i type="logical" name="LOPTICS"> F  </i>
   <v name="STM">      0.00000000      0.00000000      0.00000000      0.00000000      0.00000000      0.00000000      0.00000000</v>
  </separator>
  <separator name="performance" >
   <i type="int" name="NPAR">     2</i>
   <i type="int" name="NSIM">     4</i>
   <i type="int" name="NBLK">    -1</i>
   <i type="logical" name="LPLANE"> T  </i>
   <i type="logical" name="LSCALAPACK"> T  </i>
   <i type="logical" name="LSCAAWARE"> F  </i>
   <i type="logical" name="LSCALU"> F  </i>
   <i type="logical" name="LASYNC"> F  </i>
   <i type="logical" name="LORBITALREAL"> F  </i>
  </separator>
  <separator name="miscellaneous" >
   <i type="int" name="IDIOT">     3</i>
   <i type="int" name="PHON_NSTRUCT">    -1</i>
   <i type="logical" name="LMUSIC"> F  </i>
   <v name="POMASS">    195.08000000     16.00000000</v>
   <v name="DARWINR">      0.00000000      0.00000000</v>
   <v name="DARWINV">      1.00000000      1.00000000</v>
   <i type="logical" name="LCORR"> T  </i>
  </separator>
  <i type="logical" name="GGA_COMPAT"> T  </i>
  <i type="logical" name="LBERRY"> F  </i>
  <i type="int" name="ICORELEVEL">     0</i>
  <i type="logical" name="LDAU"> F  </i>
  <i type="int" name="I_CONSTRAINED_M">     0</i>
  <separator name="electronic exchange-correlation" >
   <i type="string" name="GGA">RP</i>
   <i type="int" name="VOSKOWN">     0</i>
   <i type="logical" name="LHFCALC"> F  </i>
   <i type="string" name="PRECFOCK"></i>
   <i type="logical" name="LSYMGRAD"> F  </i>
   <i type="logical" name="LHFONE"> F  </i>
   <i type="logical" name="LRHFCALC"> F  </i>
   <i type="logical" name="LTHOMAS"> F  </i>
   <i type="logical" name="LMODELHF"> F  </i>
   <i type="logical" name="LFOCKACE"> F  </i>
   <i name="ENCUT4O">     -1.00000000</i>
   <i type="int" name="EXXOEP">     0</i>
   <i type="int" name="FOURORBIT">     0</i>
   <i name="AEXX">      0.00000000</i>
   <i name="HFALPHA">      0.00000000</i>
   <i name="MCALPHA">      0.00000000</i>
   <i name="ALDAX">      1.00000000</i>
   <i name="AGGAX">      1.00000000</i>
   <i name="ALDAC">      1.00000000</i>
   <i name="AGGAC">      1.00000000</i>
   <i type="int" name="NKREDX">     1</i>
   <i type="int" name="NKREDY">     1</i>
   <i type="int" name="NKREDZ">     1</i>
   <i type="logical" name="SHIFTRED"> F  </i>
   <i type="logical" name="ODDONLY"> F  </i>
   <i type="logical" name="EVENONLY"> F  </i>
   <i type="int" name="LMAXFOCK">     0</i>
   <i type="int" name="NMAXFOCKAE">     0</i>
   <i type="logical" name="LFOCKAEDFT"> F  </i>
   <i name="HFSCREEN">      0.00000000</i>
   <i name="HFSCREENC">      0.00000000</i>
   <i type="int" name="NBANDSGWLOW">     0</i>
  </separator>
  <separator name="vdW DFT" >
   <i type="logical" name="LUSE_VDW"> F  </i>
   <i name="Zab_VDW">     -0.84910000</i>
   <i name="PARAM1">      0.12340000</i>
   <i name="PARAM2">      1.00000000</i>
   <i name="PARAM3">      0.00000000</i>
  </separator>
  <separator name="model GW" >
   <i type="int" name="MODEL_GW">     0</i>
   <i name="MODEL_EPS0">     22.56434757</i>
   <i name="MODEL_ALPHA">      1.00000000</i>
  </separator>
  <separator name="linear response parameters" >
   <i type="logical" name="LEPSILON"> F  </i>
   <i type="logical" name="LRPA"> F  </i>
   <i type="logical" name="LNABLA"> F  </i>
   <i type="logical" name="LVEL"> F  </i>
   <i type="int" name="KINTER">     0</i>
   <i name="CSHIFT">      0.10000000</i>
   <i name="OMEGAMAX">     -1.00000000</i>
   <i name="DEG_THRESHOLD">      0.00200000</i>
   <i name="RTIME">     -0.10000000</i>
   <i name="WPLASMAI">      0.00000000</i>
   <v name="DFIELD">      0.00000000      0.00000000      0.00000000</v>
   <v name="WPLASMA">      0.00000000      0.00000000      0.00000000      0.00000000      0.00000000      0.00000000      0.00000000      0.00000000      0.00000000</v>
  </separator>
  <separator name="orbital magnetization" >
   <i type="logical" name="NUCIND"> F  </i>
   <v name="MAGPOS">      0.00000000      0.00000000      0.00000000</v>
   <i type="logical" name="LNICSALL"> T  </i>
   <i type="logical" name="ORBITALMAG"> F  </i>
   <i type="logical" name="LMAGBLOCH"> F  </i>
   <i type="logical" name="LCHIMAG"> F  </i>
   <i type="logical" name="LGAUGE"> T  </i>
   <i type="int" name="MAGATOM">     0</i>
   <v name="MAGDIPOL">      0.00000000      0.00000000      0.00000000</v>
   <v name="AVECCONST">      0.00000000      0.00000000      0.00000000</v>
  </separator>
  <separator name="response functions" >
   <i type="logical" name="LFINITE_TEMPERATURE"> F  </i>
   <i type="logical" name="LADDER"> F  </i>
   <i type="logical" name="LRPAFORCE"> F  </i>
   <i type="logical" name="LFXC"> F  </i>
   <i type="logical" name="LHARTREE"> T  </i>
   <i type="int" name="IBSE">     0</i>
   <v type="int" name="KPOINT">    -1     0     0     0</v>
   <i type="logical" name="LTCTC"> F  </i>
   <i type="logical" name="LTCTE"> F  </i>
   <i type="logical" name="LTETE"> F  </i>
   <i type="logical" name="LTRIPLET"> F  </i>
   <i type="logical" name="LFXCEPS"> F  </i>
   <i type="logical" name="LFXHEG"> F  </i>
   <i type="int" name="NATURALO">     2</i>
   <i type="logical" name="LHOLEGF"> F  </i>
   <i type="logical" name="L2ORDER"> F  </i>
   <i type="logical" name="LDMP1"> F  </i>
   <i type="logical" name="LMP2LT"> F  </i>
   <i type="logical" name="LSMP2LT"> F  </i>
   <i type="logical" name="LGWLF"> F  </i>
   <i name="ENCUTGW">     -2.00000000</i>
   <i name="ENCUTGWSOFT">     -2.00000000</i>
   <i name="ENCUTLF">     -1.00000000</i>
   <i type="logical" name="LESF_SPLINES"> F  </i>
   <i type="int" name="LMAXMP2">    -1</i>
   <i name="SCISSOR">      0.00000000</i>
   <i type="int" name="NOMEGA">     0</i>
   <i type="int" name="NOMEGAR">     0</i>
   <i type="int" name="NBANDSGW">    -1</i>
   <i type="int" name="NBANDSO">    -1</i>
   <i type="int" name="NBANDSV">    -1</i>
   <i type="int" name="NELM">     1</i>
   <i type="int" name="NELMHF">     1</i>
   <i type="int" name="DIM">     3</i>
   <i type="int" name="IESPILON">     4</i>
   <i type="int" name="ANTIRES">     0</i>
   <i name="OMEGAMAX">    -30.00000000</i>
   <i name="OMEGAMIN">    -30.00000000</i>
   <i name="OMEGATL">   -200.00000000</i>
   <i type="int" name="OMEGAGRID">     0</i>
   <i name="CSHIFT">     -0.10000000</i>
   <i type="logical" name="LSELFENERGY"> F  </i>
   <i type="logical" name="LSPECTRAL"> F  </i>
   <i type="logical" name="LSPECTRALGW"> F  </i>
   <i type="logical" name="LSINGLES"> F  </i>
   <i type="logical" name="LFERMIGW"> F  </i>
   <i type="logical" name="ODDONLYGW"> F  </i>
   <i type="logical" name="EVENONLYGW"> F  </i>
   <i type="int" name="NKREDLFX">     1</i>
   <i type="int" name="NKREDLFY">     1</i>
   <i type="int" name="NKREDLFZ">     1</i>
   <i type="int" name="MAXMEM">  2800</i>
   <i type="int" name="TELESCOPE">     0</i>
   <i type="int" name="NTAUPAR">    -1</i>
   <i type="int" name="NOMEGAPAR">    -1</i>
   <i name="LAMBDA">      1.00000000</i>
  </separator>
  <separator name="External order field" >
   <i name="OFIELD_KAPPA">      0.00000000</i>
   <v name="OFIELD_K">      0.00000000      0.00000000      0.00000000</v>
   <i name="OFIELD_Q6_NEAR">      0.00000000</i>
   <i name="OFIELD_Q6_FAR">      0.00000000</i>
   <i name="OFIELD_A">      0.00000000</i>
  </separator>
 </parameters>
 <atominfo>
  <atoms>      57 </atoms>
  <types>       2 </types>
  <array name="atoms" >
   <dimension dim="1">ion</dimension>
   <field type="string">element</field>
   <field type="int">atomtype</field>
   <set>
    <rc><c>Pt</c><c>   1</c></rc>
    <rc><c>Pt</c><c>   1</c></rc>
    <rc><c>Pt</c><c>   1</c></rc>
    <rc><c>Pt</c><c>   1</c></rc>
    <rc><c>Pt</c><c>   1</c></rc>
    <rc><c>Pt</c><c>   1</c></rc>
    <rc><c>Pt</c><c>   1</c></rc>
    <rc><c>Pt</c><c>   1</c></rc>
    <rc><c>Pt</c><c>   1</c></rc>
    <rc><c>Pt</c><c>   1</c></rc>
    <rc><c>Pt</c><c>   1</c></rc>
    <rc><c>Pt</c><c>   1</c></rc>
    <rc><c>Pt</c><c>   1</c></rc>
    <rc><c>Pt</c><c>   1</c></rc>
    <rc><c>Pt</c><c>   1</c></rc>
    <rc><c>Pt</c><c>   1</c></rc>
    <rc><c>Pt</c><c>   1</c></rc>
    <rc><c>Pt</c><c>   1</c></rc>
    <rc><c>Pt</c><c>   1</c></rc>
    <rc><c>Pt</c><c>   1</c></rc>
    <rc><c>Pt</c><c>   1</c></rc>
    <rc><c>Pt</c><c>   1</c></rc>
    <rc><c>Pt</c><c>   1</c></rc>
    <rc><c>Pt</c><c>   1</c></rc>
    <rc><c>Pt</c><c>   1</c></rc>
    <rc><c>Pt</c><c>   1</c></rc>
    <rc><c>Pt</c><c>   1</c></rc>
    <rc><c>Pt</c><c>   1</c></rc>
    <rc><c>Pt</c><c>   1</c></rc>
    <rc><c>Pt</c><c>   1</c></rc>
    <rc><c>Pt</c><c>   1</c></rc>
    <rc><c>Pt</c><c>   1</c></rc>
    <rc><c>Pt</c><c>   1</c></rc>
    <rc><c>Pt</c><c>   1</c></rc>
    <rc><c>Pt</c><c>   1</c></rc>
    <rc><c>Pt</c><c>   1</c></rc>
    <rc><c>Pt</c><c>   1</c></rc>
    <rc><c>Pt</c><c>   1</c></rc>
    <rc><c>Pt</c><c>   1</c></rc>
    <rc><c>Pt</c><c>   1</c></rc>
    <rc><c>Pt</c><c>   1</c></rc>
    <rc><c>Pt</c><c>   1</c></rc>
    <rc><c>Pt</c><c>   1</c></rc>
    <rc><c>Pt</c><c>   1</c></rc>
    <rc><c>Pt</c><c>   1</c></rc>
    <rc><c>Pt</c><c>   1</c></rc>
    <rc><c>Pt</c><c>   1</c></rc>
    <rc><c>Pt</c><c>   1</c></rc>
    <rc><c>Pt</c><c>   1</c></rc>
    <rc><c>Pt</c><c>   1</c></rc>
    <rc><c>Pt</c><c>   1</c></rc>
    <rc><c>Pt</c><c>   1</c></rc>
    <rc><c>Pt</c><c>   1</c></rc>
    <rc><c>Pt</c><c>   1</c></rc>
    <rc><c>O </c><c>   2</c></rc>
    <rc><c>O </c><c>   2</c></rc>
    <rc><c>O </c><c>   2</c></rc>
   </set>
  </array>
  <array name="atomtypes" >
   <dimension dim="1">type</dimension>
   <field type="int">atomspertype</field>
   <field type="string">element</field>
   <field>mass</field>
   <field>valence</field>
   <field type="string">pseudopotential</field>
   <set>
    <rc><c>  54</c><c>Pt</c><c>    195.08000000</c><c>     10.00000000</c><c>  PAW_PBE Pt 04Feb2005                  </c></rc>
    <rc><c>   3</c><c>O </c><c>     16.00000000</c><c>      6.00000000</c><c>  PAW_PBE O 08Apr2002                   </c></rc>
   </set>
  </array>
 </atominfo>
 <structure name="initialpos" >
  <crystal>
   <varray name="basis" >
    <v>       8.46376883       0.00000000      -0.00000000 </v>
    <v>      -4.23188442       7.32983882       0.00000000 </v>
    <v>       0.00000000       0.00000000      34.55319157 </v>
   </varray>
   <i name="volume">   2143.61301901 </i>
   <varray name="rec_basis" >
    <v>       0.11815067       0.06821432      -0.00000000 </v>
    <v>      -0.00000000       0.13642865       0.00000000 </v>
    <v>       0.00000000       0.00000000       0.02894089 </v>
   </varray>
  </crystal>
  <varray name="positions" >
   <v>       0.11111111       0.22222222       0.33333333 </v>
   <v>       0.00000000       0.00000000       0.46666667 </v>
   <v>       0.22222222       0.11111111       0.40000000 </v>
   <v>       0.11111111       0.22222222       0.53333333 </v>
   <v>       0.32691722       0.00828012       0.66764489 </v>
   <v>       0.22222222       0.11111111       0.60000000 </v>
   <v>       0.11111111       0.55555556       0.33333333 </v>
   <v>       0.00000000       0.33333333       0.46666667 </v>
   <v>       0.22222222       0.44444444       0.40000000 </v>
   <v>       0.11111111       0.55555556       0.53333333 </v>
   <v>       0.33054511       0.32919500       0.66639985 </v>
   <v>       0.22222222       0.44444444       0.60000000 </v>
   <v>       0.11111111       0.88888889       0.33333333 </v>
   <v>       0.00000000       0.66666667       0.46666667 </v>
   <v>       0.22222222       0.77777778       0.40000000 </v>
   <v>       0.11111111       0.88888889       0.53333333 </v>
   <v>       0.34047471       0.65644642       0.66763001 </v>
   <v>       0.22222222       0.77777778       0.60000000 </v>
   <v>       0.44444444       0.22222222       0.33333333 </v>
   <v>       0.33333333       0.00000000       0.46666667 </v>
   <v>       0.55555556       0.11111111       0.40000000 </v>
   <v>       0.44444444       0.22222222       0.53333333 </v>
   <v>       0.68087517       0.00653950       0.66765677 </v>
   <v>       0.55555556       0.11111111       0.60000000 </v>
   <v>       0.44444444       0.55555556       0.33333333 </v>
   <v>       0.33333333       0.33333333       0.46666667 </v>
   <v>       0.55555556       0.44444444       0.40000000 </v>
   <v>       0.44444444       0.55555556       0.53333333 </v>
   <v>       0.65840668       0.32130800       0.66708789 </v>
   <v>       0.55555556       0.44444444       0.60000000 </v>
   <v>       0.44444444       0.88888889       0.33333333 </v>
   <v>       0.33333333       0.66666667       0.46666667 </v>
   <v>       0.55555556       0.77777778       0.40000000 </v>
   <v>       0.44444444       0.88888889       0.53333333 </v>
   <v>       0.66051740       0.67089434       0.66714771 </v>
   <v>       0.55555556       0.77777778       0.60000000 </v>
   <v>       0.77777778       0.22222222       0.33333333 </v>
   <v>       0.66666667       0.00000000       0.46666667 </v>
   <v>       0.88888889       0.11111111       0.40000000 </v>
   <v>       0.77777778       0.22222222       0.53333333 </v>
   <v>       0.00100418       0.00393919       0.66657389 </v>
   <v>       0.88888889       0.11111111       0.60000000 </v>
   <v>       0.77777778       0.55555556       0.33333333 </v>
   <v>       0.66666667       0.33333333       0.46666667 </v>
   <v>       0.88888889       0.44444444       0.40000000 </v>
   <v>       0.77777778       0.55555556       0.53333333 </v>
   <v>       0.99309266       0.31798503       0.66759053 </v>
   <v>       0.88888889       0.44444444       0.60000000 </v>
   <v>       0.77777778       0.88888889       0.33333333 </v>
   <v>       0.66666667       0.66666667       0.46666667 </v>
   <v>       0.88888889       0.77777778       0.40000000 </v>
   <v>       0.77777778       0.88888889       0.53333333 </v>
   <v>       0.00567074       0.68289688       0.66783708 </v>
   <v>       0.88888889       0.77777778       0.60000000 </v>
   <v>       0.44924173       0.89649324       0.69973221 </v>
   <v>       0.10772827       0.54605460       0.69998574 </v>
   <v>       0.76883682       0.55228431       0.70067235 </v>
  </varray>
  <varray name="selective"  type="logical" >
   <v type="logical" >  F  F  F </v>
   <v type="logical" >  F  F  F </v>
   <v type="logical" >  F  F  F </v>
   <v type="logical" >  F  F  F </v>
   <v type="logical" >  T  T  T </v>
   <v type="logical" >  F  F  F </v>
   <v type="logical" >  F  F  F </v>
   <v type="logical" >  F  F  F </v>
   <v type="logical" >  F  F  F </v>
   <v type="logical" >  F  F  F </v>
   <v type="logical" >  T  T  T </v>
   <v type="logical" >  F  F  F </v>
   <v type="logical" >  F  F  F </v>
   <v type="logical" >  F  F  F </v>
   <v type="logical" >  F  F  F </v>
   <v type="logical" >  F  F  F </v>
   <v type="logical" >  T  T  T </v>
   <v type="logical" >  F  F  F </v>
   <v type="logical" >  F  F  F </v>
   <v type="logical" >  F  F  F </v>
   <v type="logical" >  F  F  F </v>
   <v type="logical" >  F  F  F </v>
   <v type="logical" >  T  T  T </v>
   <v type="logical" >  F  F  F </v>
   <v type="logical" >  F  F  F </v>
   <v type="logical" >  F  F  F </v>
   <v type="logical" >  F  F  F </v>
   <v type="logical" >  F  F  F </v>
   <v type="logical" >  T  T  T </v>
   <v type="logical" >  F  F  F </v>
   <v type="logical" >  F  F  F </v>
   <v type="logical" >  F  F  F </v>
   <v type="logical" >  F  F  F </v>
   <v type="logical" >  F  F  F </v>
   <v type="logical" >  T  T  T </v>
   <v type="logical" >  F  F  F </v>
   <v type="logical" >  F  F  F </v>
   <v type="logical" >  F  F  F </v>
   <v type="logical" >  F  F  F </v>
   <v type="logical" >  F  F  F </v>
   <v type="logical" >  T  T  T </v>
   <v type="logical" >  F  F  F </v>
   <v type="logical" >  F  F  F </v>
   <v type="logical" >  F  F  F </v>
   <v type="logical" >  F  F  F </v>
   <v type="logical" >  F  F  F </v>
   <v type="logical" >  T  T  T </v>
   <v type="logical" >  F  F  F </v>
   <v type="logical" >  F  F  F </v>
   <v type="logical" >  F  F  F </v>
   <v type="logical" >  F  F  F </v>
   <v type="logical" >  F  F  F </v>
   <v type="logical" >  T  T  T </v>
   <v type="logical" >  F  F  F </v>
   <v type="logical" >  T  T  T </v>
   <v type="logical" >  T  T  T </v>
   <v type="logical" >  T  T  T </v>
  </varray>
  <nose>
   <v>      -3.00000000       0.00000000       0.00010000       0.00010000 </v>
  </nose>
 </structure>
 <calculation>
  <scstep>
   <time name="dav">   54.18   54.23</time>
   <time name="total">   54.40   54.45</time>
   <energy>
    <i name="alphaZ">   1354.28548377 </i>
    <i name="ewald"> 413764.23154623 </i>
    <i name="hartreedc">-456827.82816049 </i>
    <i name="XCdc">    251.43075278 </i>
    <i name="pawpsdc">  38662.82173171 </i>
    <i name="pawaedc"> -37088.03608427 </i>
    <i name="eentropy">     -0.00563869 </i>
    <i name="bandstr">   2612.42661918 </i>
    <i name="atom">  40624.56325360 </i>
    <i name="e_fr_energy">   3353.88950383 </i>
    <i name="e_wo_entrp">   3353.89514251 </i>
    <i name="e_0_energy">   3353.89138339 </i>
   </energy>
  </scstep>
  <scstep>
   <time name="dav">   61.38   61.43</time>
   <time name="total">   61.39   61.45</time>
   <energy>
    <i name="e_fr_energy">    -54.73895581 </i>
    <i name="e_wo_entrp">    -54.74069623 </i>
    <i name="e_0_energy">    -54.73953595 </i>
   </energy>
  </scstep>
  <scstep>
   <time name="dav">   59.96   60.01</time>
   <time name="total">   59.97   60.02</time>
   <energy>
    <i name="e_fr_energy">   -311.74305691 </i>
    <i name="e_wo_entrp">   -311.64568787 </i>
    <i name="e_0_energy">   -311.71060057 </i>
   </energy>
  </scstep>
  <scstep>
   <time name="dav">   64.88   64.94</time>
   <time name="total">   64.91   64.96</time>
   <energy>
    <i name="e_fr_energy">   -324.08586572 </i>
    <i name="e_wo_entrp">   -323.98352251 </i>
    <i name="e_0_energy">   -324.05175132 </i>
   </energy>
  </scstep>
  <scstep>
   <time name="dav">   63.58   63.63</time>
   <time name="total">   66.96   67.02</time>
   <energy>
    <i name="e_fr_energy">   -324.41504191 </i>
    <i name="e_wo_entrp">   -324.31271861 </i>
    <i name="e_0_energy">   -324.38093414 </i>
   </energy>
  </scstep>
  <scstep>
   <time name="dav">   58.16   58.21</time>
   <time name="total">   61.57   61.62</time>
   <energy>
    <i name="e_fr_energy">   -363.54829539 </i>
    <i name="e_wo_entrp">   -363.56457594 </i>
    <i name="e_0_energy">   -363.55372224 </i>
   </energy>
  </scstep>
  <scstep>
   <time name="dav">   69.62   69.68</time>
   <time name="total">   73.03   73.09</time>
   <energy>
    <i name="e_fr_energy">   -424.27921366 </i>
    <i name="e_wo_entrp">   -424.30988357 </i>
    <i name="e_0_energy">   -424.28943696 </i>
   </energy>
  </scstep>
  <scstep>
   <time name="dav">   71.87   71.93</time>
   <time name="total">   75.27   75.34</time>
   <energy>
    <i name="e_fr_energy">   -536.77693008 </i>
    <i name="e_wo_entrp">   -536.74373630 </i>
    <i name="e_0_energy">   -536.76586549 </i>
   </energy>
  </scstep>
  <scstep>
   <time name="dav">   60.29   60.34</time>
   <time name="total">   63.76   63.81</time>
   <energy>
    <i name="e_fr_energy">   -370.94253255 </i>
    <i name="e_wo_entrp">   -370.98331872 </i>
    <i name="e_0_energy">   -370.95612794 </i>
   </energy>
  </scstep>
  <scstep>
   <time name="dav">   57.29   57.34</time>
   <time name="total">   60.75   60.80</time>
   <energy>
    <i name="e_fr_energy">   -375.64366893 </i>
    <i name="e_wo_entrp">   -375.68630833 </i>
    <i name="e_0_energy">   -375.65788206 </i>
   </energy>
  </scstep>
  <scstep>
   <time name="dav">   58.71   58.76</time>
   <time name="total">   62.04   62.09</time>
   <energy>
    <i name="e_fr_energy">   -322.86863651 </i>
    <i name="e_wo_entrp">   -322.75487634 </i>
    <i name="e_0_energy">   -322.83071645 </i>
   </energy>
  </scstep>
  <scstep>
   <time name="dav">   58.93   58.98</time>
   <time name="total">   62.34   62.39</time>
   <energy>
    <i name="e_fr_energy">   -307.81771322 </i>
    <i name="e_wo_entrp">   -307.66910844 </i>
    <i name="e_0_energy">   -307.76817830 </i>
   </energy>
  </scstep>
  <scstep>
   <time name="dav">   56.15   56.19</time>
   <time name="total">   59.60   59.65</time>
   <energy>
    <i name="e_fr_energy">   -304.44093684 </i>
    <i name="e_wo_entrp">   -304.28069365 </i>
    <i name="e_0_energy">   -304.38752245 </i>
   </energy>
  </scstep>
  <scstep>
   <time name="dav">   57.35   57.39</time>
   <time name="total">   60.82   60.87</time>
   <energy>
    <i name="e_fr_energy">   -302.83432543 </i>
    <i name="e_wo_entrp">   -302.68300436 </i>
    <i name="e_0_energy">   -302.78388507 </i>
   </energy>
  </scstep>
  <scstep>
   <time name="dav">   57.03   57.08</time>
   <time name="total">   60.42   60.47</time>
   <energy>
    <i name="e_fr_energy">   -301.96677562 </i>
    <i name="e_wo_entrp">   -301.85798214 </i>
    <i name="e_0_energy">   -301.93051113 </i>
   </energy>
  </scstep>
  <scstep>
   <time name="dav">   57.10   57.15</time>
   <time name="total">   60.58   60.63</time>
   <energy>
    <i name="e_fr_energy">   -301.83381859 </i>
    <i name="e_wo_entrp">   -301.74197589 </i>
    <i name="e_0_energy">   -301.80320436 </i>
   </energy>
  </scstep>
  <scstep>
   <time name="dav">   56.20   56.24</time>
   <time name="total">   59.57   59.63</time>
   <energy>
    <i name="e_fr_energy">   -301.76378921 </i>
    <i name="e_wo_entrp">   -301.67626198 </i>
    <i name="e_0_energy">   -301.73461347 </i>
   </energy>
  </scstep>
  <scstep>
   <time name="dav">   57.53   57.57</time>
   <time name="total">   61.01   61.06</time>
   <energy>
    <i name="e_fr_energy">   -301.72808882 </i>
    <i name="e_wo_entrp">   -301.61739307 </i>
    <i name="e_0_energy">   -301.69119024 </i>
   </energy>
  </scstep>
  <scstep>
   <time name="dav">   56.66   56.71</time>
   <time name="total">   60.05   60.10</time>
   <energy>
    <i name="e_fr_energy">   -301.96983984 </i>
    <i name="e_wo_entrp">   -301.85313595 </i>
    <i name="e_0_energy">   -301.93093855 </i>
   </energy>
  </scstep>
  <scstep>
   <time name="dav">   56.80   56.85</time>
   <time name="total">   60.14   60.19</time>
   <energy>
    <i name="e_fr_energy">   -301.83456849 </i>
    <i name="e_wo_entrp">   -301.71079019 </i>
    <i name="e_0_energy">   -301.79330906 </i>
   </energy>
  </scstep>
  <scstep>
   <time name="dav">   57.18   57.22</time>
   <time name="total">   60.68   60.74</time>
   <energy>
    <i name="e_fr_energy">   -301.63318556 </i>
    <i name="e_wo_entrp">   -301.51501375 </i>
    <i name="e_0_energy">   -301.59379495 </i>
   </energy>
  </scstep>
  <scstep>
   <time name="dav">   56.72   56.77</time>
   <time name="total">   60.21   60.25</time>
   <energy>
    <i name="e_fr_energy">   -301.60594037 </i>
    <i name="e_wo_entrp">   -301.48858852 </i>
    <i name="e_0_energy">   -301.56682308 </i>
   </energy>
  </scstep>
  <scstep>
   <time name="dav">   58.27   58.31</time>
   <time name="total">   61.73   61.78</time>
   <energy>
    <i name="e_fr_energy">   -301.58822924 </i>
    <i name="e_wo_entrp">   -301.47488097 </i>
    <i name="e_0_energy">   -301.55044649 </i>
   </energy>
  </scstep>
  <scstep>
   <time name="dav">   56.87   56.91</time>
   <time name="total">   60.37   60.42</time>
   <energy>
    <i name="e_fr_energy">   -301.58496153 </i>
    <i name="e_wo_entrp">   -301.47120077 </i>
    <i name="e_0_energy">   -301.54704127 </i>
   </energy>
  </scstep>
  <scstep>
   <time name="dav">   56.27   56.32</time>
   <time name="total">   59.71   59.76</time>
   <energy>
    <i name="e_fr_energy">   -301.57729748 </i>
    <i name="e_wo_entrp">   -301.46674436 </i>
    <i name="e_0_energy">   -301.54044644 </i>
   </energy>
  </scstep>
  <scstep>
   <time name="dav">   57.39   57.44</time>
   <time name="total">   60.84   60.89</time>
   <energy>
    <i name="e_fr_energy">   -301.57301516 </i>
    <i name="e_wo_entrp">   -301.46387312 </i>
    <i name="e_0_energy">   -301.53663448 </i>
   </energy>
  </scstep>
  <scstep>
   <time name="dav">   56.70   56.75</time>
   <time name="total">   60.20   60.25</time>
   <energy>
    <i name="e_fr_energy">   -301.57203791 </i>
    <i name="e_wo_entrp">   -301.46266658 </i>
    <i name="e_0_energy">   -301.53558080 </i>
   </energy>
  </scstep>
  <scstep>
   <time name="dav">   56.30   56.35</time>
   <time name="total">   59.80   59.85</time>
   <energy>
    <i name="e_fr_energy">   -301.57258425 </i>
    <i name="e_wo_entrp">   -301.46221404 </i>
    <i name="e_0_energy">   -301.53579418 </i>
   </energy>
  </scstep>
  <scstep>
   <time name="dav">   56.10   56.14</time>
   <time name="total">   59.58   59.64</time>
   <energy>
    <i name="e_fr_energy">   -301.57166561 </i>
    <i name="e_wo_entrp">   -301.46165921 </i>
    <i name="e_0_energy">   -301.53499681 </i>
   </energy>
  </scstep>
  <scstep>
   <time name="dav">   50.38   50.43</time>
   <time name="total">   53.90   53.95</time>
   <energy>
    <i name="e_fr_energy">   -301.57136128 </i>
    <i name="e_wo_entrp">   -301.46104862 </i>
    <i name="e_0_energy">   -301.53459040 </i>
   </energy>
  </scstep>
  <scstep>
   <time name="dav">   37.55   37.59</time>
   <time name="total">   41.03   41.06</time>
   <energy>
    <i name="e_fr_energy">   -301.57170509 </i>
    <i name="e_wo_entrp">   -301.46107364 </i>
    <i name="e_0_energy">   -301.53482794 </i>
   </energy>
  </scstep>
  <scstep>
   <time name="dav">   37.89   37.92</time>
   <time name="total">   41.31   41.34</time>
   <energy>
    <i name="e_fr_energy">   -301.57130380 </i>
    <i name="e_wo_entrp">   -301.46112434 </i>
    <i name="e_0_energy">   -301.53457731 </i>
   </energy>
  </scstep>
  <scstep>
   <time name="dav">   37.22   37.25</time>
   <time name="total">   40.64   40.68</time>
   <energy>
    <i name="e_fr_energy">   -301.57116757 </i>
    <i name="e_wo_entrp">   -301.46134547 </i>
    <i name="e_0_energy">   -301.53456020 </i>
   </energy>
  </scstep>
  <scstep>
   <time name="dav">   35.72   35.75</time>
   <time name="total">   35.99   36.02</time>
   <energy>
    <i name="alphaZ">   1354.28548377 </i>
    <i name="ewald"> 413764.23154623 </i>
    <i name="hartreedc">-456267.43666594 </i>
    <i name="XCdc">    236.46296502 </i>
    <i name="pawpsdc">  49652.66298820 </i>
    <i name="pawaedc"> -48224.23426724 </i>
    <i name="eentropy">     -0.10963870 </i>
    <i name="bandstr">  -1441.99687594 </i>
    <i name="atom">  40624.56325360 </i>
    <i name="e_fr_energy">   -301.57121100 </i>
    <i name="e_wo_entrp">   -301.46157231 </i>
    <i name="e_0_energy">   -301.53466477 </i>
   </energy>
  </scstep>
  <structure>
   <crystal>
    <varray name="basis" >
     <v>       8.46376883       0.00000000      -0.00000000 </v>
     <v>      -4.23188442       7.32983882       0.00000000 </v>
     <v>       0.00000000       0.00000000      34.55319157 </v>
    </varray>
    <i name="volume">   2143.61301901 </i>
    <varray name="rec_basis" >
     <v>       0.11815067       0.06821432      -0.00000000 </v>
     <v>      -0.00000000       0.13642865       0.00000000 </v>
     <v>       0.00000000       0.00000000       0.02894089 </v>
    </varray>
   </crystal>
   <varray name="positions" >
    <v>       0.11111111       0.22222222       0.33333333 </v>
    <v>       0.00000000       0.00000000       0.46666667 </v>
    <v>       0.22222222       0.11111111       0.40000000 </v>
    <v>       0.11111111       0.22222222       0.53333333 </v>
    <v>       0.32691722       0.00828012       0.66764489 </v>
    <v>       0.22222222       0.11111111       0.60000000 </v>
    <v>       0.11111111       0.55555556       0.33333333 </v>
    <v>       0.00000000       0.33333333       0.46666667 </v>
    <v>       0.22222222       0.44444444       0.40000000 </v>
    <v>       0.11111111       0.55555556       0.53333333 </v>
    <v>       0.33054511       0.32919500       0.66639985 </v>
    <v>       0.22222222       0.44444444       0.60000000 </v>
    <v>       0.11111111       0.88888889       0.33333333 </v>
    <v>       0.00000000       0.66666667       0.46666667 </v>
    <v>       0.22222222       0.77777778       0.40000000 </v>
    <v>       0.11111111       0.88888889       0.53333333 </v>
    <v>       0.34047471       0.65644642       0.66763001 </v>
    <v>       0.22222222       0.77777778       0.60000000 </v>
    <v>       0.44444444       0.22222222       0.33333333 </v>
    <v>       0.33333333       0.00000000       0.46666667 </v>
    <v>       0.55555556       0.11111111       0.40000000 </v>
    <v>       0.44444444       0.22222222       0.53333333 </v>
    <v>       0.68087517       0.00653950       0.66765677 </v>
    <v>       0.55555556       0.11111111       0.60000000 </v>
    <v>       0.44444444       0.55555556       0.33333333 </v>
    <v>       0.33333333       0.33333333       0.46666667 </v>
    <v>       0.55555556       0.44444444       0.40000000 </v>
    <v>       0.44444444       0.55555556       0.53333333 </v>
    <v>       0.65840668       0.32130800       0.66708789 </v>
    <v>       0.55555556       0.44444444       0.60000000 </v>
    <v>       0.44444444       0.88888889       0.33333333 </v>
    <v>       0.33333333       0.66666667       0.46666667 </v>
    <v>       0.55555556       0.77777778       0.40000000 </v>
    <v>       0.44444444       0.88888889       0.53333333 </v>
    <v>       0.66051740       0.67089434       0.66714771 </v>
    <v>       0.55555556       0.77777778       0.60000000 </v>
    <v>       0.77777778       0.22222222       0.33333333 </v>
    <v>       0.66666667       0.00000000       0.46666667 </v>
    <v>       0.88888889       0.11111111       0.40000000 </v>
    <v>       0.77777778       0.22222222       0.53333333 </v>
    <v>       0.00100418       0.00393919       0.66657389 </v>
    <v>       0.88888889       0.11111111       0.60000000 </v>
    <v>       0.77777778       0.55555556       0.33333333 </v>
    <v>       0.66666667       0.33333333       0.46666667 </v>
    <v>       0.88888889       0.44444444       0.40000000 </v>
    <v>       0.77777778       0.55555556       0.53333333 </v>
    <v>       0.99309266       0.31798503       0.66759053 </v>
    <v>       0.88888889       0.44444444       0.60000000 </v>
    <v>       0.77777778       0.88888889       0.33333333 </v>
    <v>       0.66666667       0.66666667       0.46666667 </v>
    <v>       0.88888889       0.77777778       0.40000000 </v>
    <v>       0.77777778       0.88888889       0.53333333 </v>
    <v>       0.00567074       0.68289688       0.66783708 </v>
    <v>       0.88888889       0.77777778       0.60000000 </v>
    <v>       0.44924173       0.89649324       0.69973221 </v>
    <v>       0.10772827       0.54605460       0.69998574 </v>
    <v>       0.76883682       0.55228431       0.70067235 </v>
   </varray>
  </structure>
  <varray name="forces" >
   <v>      -0.00329271       0.00700453      -0.13014218 </v>
   <v>       0.00393056       0.00588880      -0.03418350 </v>
   <v>       0.00644603      -0.02142413       0.18537854 </v>
   <v>      -0.00447544      -0.01630183      -0.08376842 </v>
   <v>      -0.13503058       0.01123928       0.13360051 </v>
   <v>       0.18706627      -0.06093214      -0.08104191 </v>
   <v>      -0.00074649      -0.00180341      -0.16628503 </v>
   <v>      -0.03034400      -0.00137338      -0.02928679 </v>
   <v>      -0.00851153       0.03733361       0.20711882 </v>
   <v>       0.02191911      -0.01313028      -0.05468964 </v>
   <v>       0.03401911      -0.02840616      -0.07093085 </v>
   <v>      -0.02100121       0.09292279      -0.06173260 </v>
   <v>       0.00848120      -0.00685554      -0.16628736 </v>
   <v>      -0.00260940       0.01877960       0.01562998 </v>
   <v>      -0.00449687      -0.01405604       0.23173021 </v>
   <v>      -0.03944243       0.03080341      -0.09714078 </v>
   <v>       0.12622620      -0.00912914       0.10028912 </v>
   <v>      -0.12239445      -0.07043739       0.10471223 </v>
   <v>       0.00830201       0.00225447      -0.14068833 </v>
   <v>      -0.03468697       0.02412222      -0.02929257 </v>
   <v>       0.01887338      -0.01033374       0.20989600 </v>
   <v>      -0.01838211      -0.01247989      -0.10147761 </v>
   <v>       0.09167681       0.05296952       0.06358841 </v>
   <v>      -0.04156809       0.12795520       0.06260445 </v>
   <v>      -0.00469334       0.00568618      -0.17582023 </v>
   <v>       0.02460847       0.00472429      -0.06117048 </v>
   <v>      -0.00796783       0.02291339       0.18004862 </v>
   <v>      -0.01178934       0.01281053      -0.11079823 </v>
   <v>       0.13793684       0.00769584       0.01491824 </v>
   <v>       0.08047032      -0.01466717      -0.37212793 </v>
   <v>      -0.00186746       0.00456414      -0.14958174 </v>
   <v>       0.01592935      -0.05265651      -0.02368148 </v>
   <v>      -0.00971653      -0.00860409       0.24240322 </v>
   <v>       0.02114743       0.01054682      -0.02878418 </v>
   <v>      -0.03369430       0.11141601      -0.03326477 </v>
   <v>       0.02675012      -0.16386923       0.30882208 </v>
   <v>       0.00006774      -0.00282877      -0.17544165 </v>
   <v>       0.00815242       0.02641500      -0.02096449 </v>
   <v>      -0.02389945      -0.00244998       0.22489532 </v>
   <v>       0.03072819      -0.05317072      -0.12020198 </v>
   <v>       0.05394862      -0.00940266      -0.00086743 </v>
   <v>      -0.15634963       0.09099496       0.22911764 </v>
   <v>       0.00015806      -0.00843051      -0.13931365 </v>
   <v>      -0.00114919      -0.01271083       0.00212918 </v>
   <v>       0.01488284       0.00525609       0.20233878 </v>
   <v>      -0.01824289       0.02059872      -0.06550305 </v>
   <v>      -0.11302151      -0.04932992      -0.00477977 </v>
   <v>      -0.03291432       0.05966879      -0.20678418 </v>
   <v>      -0.00934100      -0.00106576      -0.15994950 </v>
   <v>      -0.00460412      -0.03915163      -0.04743010 </v>
   <v>       0.01302438      -0.00511361       0.21037991 </v>
   <v>       0.00260673       0.00823280      -0.08212152 </v>
   <v>       0.06075591       0.03345654       0.11467407 </v>
   <v>       0.12963173      -0.12165609      -0.05925770 </v>
   <v>      -0.04161475       0.08184276       0.05300852 </v>
   <v>      -0.05770673      -0.02078713       0.14537315 </v>
   <v>      -0.13218516      -0.08553860       0.04213463 </v>
  </varray>
  <energy>
   <i name="e_fr_energy">   -301.57121100 </i>
   <i name="e_wo_entrp">   -301.46157231 </i>
   <i name="e_0_energy">   -301.53466477 </i>
  </energy>
  <time name="totalsc"> 2021.42 2023.21</time>
  <eigenvalues>
   <array>
    <dimension dim="1">band</dimension>
    <dimension dim="2">kpoint</dimension>
    <dimension dim="3">spin</dimension>
    <field>eigene</field>
    <field>occ</field>
    <set>
     <set comment="spin 1">
      <set comment="kpoint 1">
       <r>  -18.8111    1.0000 </r>
       <r>  -18.6500    1.0000 </r>
       <r>  -18.5862    1.0000 </r>
       <r>   -8.5280    1.0000 </r>
       <r>   -7.8323    1.0000 </r>
       <r>   -6.9576    1.0000 </r>
       <r>   -6.5798    1.0000 </r>
       <r>   -6.5110    1.0000 </r>
       <r>   -6.2714    1.0000 </r>
       <r>   -6.1099    1.0000 </r>
       <r>   -6.0696    1.0000 </r>
       <r>   -6.0161    1.0000 </r>
       <r>   -6.0001    1.0000 </r>
       <r>   -5.9835    1.0000 </r>
       <r>   -5.9348    1.0000 </r>
       <r>   -5.9219    1.0000 </r>
       <r>   -5.8771    1.0000 </r>
       <r>   -5.8389    1.0000 </r>
       <r>   -5.7745    1.0000 </r>
       <r>   -5.7413    1.0000 </r>
       <r>   -5.6341    1.0000 </r>
       <r>   -5.5104    1.0000 </r>
       <r>   -5.5040    1.0000 </r>
       <r>   -5.4902    1.0000 </r>
       <r>   -5.4852    1.0000 </r>
       <r>   -5.4746    1.0000 </r>
       <r>   -5.4391    1.0000 </r>
       <r>   -5.3097    1.0000 </r>
       <r>   -5.2594    1.0000 </r>
       <r>   -5.2377    1.0000 </r>
       <r>   -5.2300    1.0000 </r>
       <r>   -5.2233    1.0000 </r>
       <r>   -5.2222    1.0000 </r>
       <r>   -5.0984    1.0000 </r>
       <r>   -5.0209    1.0000 </r>
       <r>   -4.9094    1.0000 </r>
       <r>   -4.8951    1.0000 </r>
       <r>   -4.8826    1.0000 </r>
       <r>   -4.8752    1.0000 </r>
       <r>   -4.8104    1.0000 </r>
       <r>   -4.7838    1.0000 </r>
       <r>   -4.7363    1.0000 </r>
       <r>   -4.6986    1.0000 </r>
       <r>   -4.6916    1.0000 </r>
       <r>   -4.6783    1.0000 </r>
       <r>   -4.6664    1.0000 </r>
       <r>   -4.6592    1.0000 </r>
       <r>   -4.6395    1.0000 </r>
       <r>   -4.4891    1.0000 </r>
       <r>   -4.4366    1.0000 </r>
       <r>   -4.4268    1.0000 </r>
       <r>   -4.4219    1.0000 </r>
       <r>   -4.4216    1.0000 </r>
       <r>   -4.4177    1.0000 </r>
       <r>   -4.4079    1.0000 </r>
       <r>   -4.4040    1.0000 </r>
       <r>   -4.3907    1.0000 </r>
       <r>   -4.3839    1.0000 </r>
       <r>   -4.3820    1.0000 </r>
       <r>   -4.3676    1.0000 </r>
       <r>   -4.3380    1.0000 </r>
       <r>   -4.3218    1.0000 </r>
       <r>   -4.2695    1.0000 </r>
       <r>   -4.2101    1.0000 </r>
       <r>   -4.2089    1.0000 </r>
       <r>   -4.1917    1.0000 </r>
       <r>   -4.1901    1.0000 </r>
       <r>   -4.1145    1.0000 </r>
       <r>   -4.0589    1.0000 </r>
       <r>   -4.0364    1.0000 </r>
       <r>   -4.0310    1.0000 </r>
       <r>   -3.9985    1.0000 </r>
       <r>   -3.9743    1.0000 </r>
       <r>   -3.9256    1.0000 </r>
       <r>   -3.9140    1.0000 </r>
       <r>   -3.8463    1.0000 </r>
       <r>   -3.7778    1.0000 </r>
       <r>   -3.7224    1.0000 </r>
       <r>   -3.7177    1.0000 </r>
       <r>   -3.6905    1.0000 </r>
       <r>   -3.6747    1.0000 </r>
       <r>   -3.6370    1.0000 </r>
       <r>   -3.6288    1.0000 </r>
       <r>   -3.6220    1.0000 </r>
       <r>   -3.6148    1.0000 </r>
       <r>   -3.5945    1.0000 </r>
       <r>   -3.5933    1.0000 </r>
       <r>   -3.4500    1.0000 </r>
       <r>   -3.3750    1.0000 </r>
       <r>   -3.3540    1.0000 </r>
       <r>   -3.3396    1.0000 </r>
       <r>   -3.3257    1.0000 </r>
       <r>   -3.3251    1.0000 </r>
       <r>   -3.2664    1.0000 </r>
       <r>   -3.1505    1.0000 </r>
       <r>   -3.1501    1.0000 </r>
       <r>   -3.1085    1.0000 </r>
       <r>   -3.0866    1.0000 </r>
       <r>   -3.0684    1.0000 </r>
       <r>   -2.9517    1.0000 </r>
       <r>   -2.8881    1.0000 </r>
       <r>   -2.8693    1.0000 </r>
       <r>   -2.8484    1.0000 </r>
       <r>   -2.8324    1.0000 </r>
       <r>   -2.8165    1.0000 </r>
       <r>   -2.8018    1.0000 </r>
       <r>   -2.7892    1.0000 </r>
       <r>   -2.7696    1.0000 </r>
       <r>   -2.7532    1.0000 </r>
       <r>   -2.7391    1.0000 </r>
       <r>   -2.7291    1.0000 </r>
       <r>   -2.7262    1.0000 </r>
       <r>   -2.7148    1.0000 </r>
       <r>   -2.6968    1.0000 </r>
       <r>   -2.6352    1.0000 </r>
       <r>   -2.6339    1.0000 </r>
       <r>   -2.6034    1.0000 </r>
       <r>   -2.5845    1.0000 </r>
       <r>   -2.5715    1.0000 </r>
       <r>   -2.5512    1.0000 </r>
       <r>   -2.5466    1.0000 </r>
       <r>   -2.5410    1.0000 </r>
       <r>   -2.5364    1.0000 </r>
       <r>   -2.5340    1.0000 </r>
       <r>   -2.5314    1.0000 </r>
       <r>   -2.5174    1.0000 </r>
       <r>   -2.4735    1.0000 </r>
       <r>   -2.4590    1.0000 </r>
       <r>   -2.4560    1.0000 </r>
       <r>   -2.4453    1.0000 </r>
       <r>   -2.4385    1.0000 </r>
       <r>   -2.4310    1.0000 </r>
       <r>   -2.4303    1.0000 </r>
       <r>   -2.4258    1.0000 </r>
       <r>   -2.4037    1.0000 </r>
       <r>   -2.3511    1.0000 </r>
       <r>   -2.3477    1.0000 </r>
       <r>   -2.3438    1.0000 </r>
       <r>   -2.3392    1.0000 </r>
       <r>   -2.3338    1.0000 </r>
       <r>   -2.3227    1.0000 </r>
       <r>   -2.3134    1.0000 </r>
       <r>   -2.3082    1.0000 </r>
       <r>   -2.3039    1.0000 </r>
       <r>   -2.2926    1.0000 </r>
       <r>   -2.2904    1.0000 </r>
       <r>   -2.2862    1.0000 </r>
       <r>   -2.2788    1.0000 </r>
       <r>   -2.2757    1.0000 </r>
       <r>   -2.1821    1.0000 </r>
       <r>   -2.1732    1.0000 </r>
       <r>   -2.1491    1.0000 </r>
       <r>   -2.0717    1.0000 </r>
       <r>   -2.0336    1.0000 </r>
       <r>   -2.0314    1.0000 </r>
       <r>   -2.0098    1.0000 </r>
       <r>   -2.0087    1.0000 </r>
       <r>   -2.0023    1.0000 </r>
       <r>   -1.9931    1.0000 </r>
       <r>   -1.9859    1.0000 </r>
       <r>   -1.9719    1.0000 </r>
       <r>   -1.9113    1.0000 </r>
       <r>   -1.9112    1.0000 </r>
       <r>   -1.8744    1.0000 </r>
       <r>   -1.8489    1.0000 </r>
       <r>   -1.8469    1.0000 </r>
       <r>   -1.8460    1.0000 </r>
       <r>   -1.8366    1.0000 </r>
       <r>   -1.8017    1.0000 </r>
       <r>   -1.7718    1.0000 </r>
       <r>   -1.7600    1.0000 </r>
       <r>   -1.7199    1.0000 </r>
       <r>   -1.5829    1.0000 </r>
       <r>   -1.5024    1.0000 </r>
       <r>   -1.4626    1.0000 </r>
       <r>   -1.4316    1.0000 </r>
       <r>   -1.4011    1.0000 </r>
       <r>   -1.3519    1.0000 </r>
       <r>   -1.3433    1.0000 </r>
       <r>   -1.3205    1.0000 </r>
       <r>   -1.2963    1.0000 </r>
       <r>   -1.2841    1.0000 </r>
       <r>   -1.2383    1.0000 </r>
       <r>   -1.1792    1.0000 </r>
       <r>   -1.1667    1.0000 </r>
       <r>   -1.1191    1.0000 </r>
       <r>   -1.0792    1.0000 </r>
       <r>   -1.0684    1.0000 </r>
       <r>   -1.0387    1.0000 </r>
       <r>   -1.0356    1.0000 </r>
       <r>   -1.0301    1.0000 </r>
       <r>   -1.0219    1.0000 </r>
       <r>   -1.0199    1.0000 </r>
       <r>   -1.0081    1.0000 </r>
       <r>   -1.0066    1.0000 </r>
       <r>   -1.0021    1.0000 </r>
       <r>   -0.9954    1.0000 </r>
       <r>   -0.9926    1.0000 </r>
       <r>   -0.9770    1.0000 </r>
       <r>   -0.9682    1.0000 </r>
       <r>   -0.9538    1.0000 </r>
       <r>   -0.9033    1.0000 </r>
       <r>   -0.8611    1.0000 </r>
       <r>   -0.8277    1.0000 </r>
       <r>   -0.7153    1.0000 </r>
       <r>   -0.7060    1.0000 </r>
       <r>   -0.6972    1.0000 </r>
       <r>   -0.6671    1.0000 </r>
       <r>   -0.6538    1.0000 </r>
       <r>   -0.6413    1.0000 </r>
       <r>   -0.6393    1.0000 </r>
       <r>   -0.6250    1.0000 </r>
       <r>   -0.6035    1.0000 </r>
       <r>   -0.5620    1.0000 </r>
       <r>   -0.5551    1.0000 </r>
       <r>   -0.5248    1.0000 </r>
       <r>   -0.4927    1.0000 </r>
       <r>   -0.4217    1.0000 </r>
       <r>   -0.4072    1.0000 </r>
       <r>   -0.3912    1.0000 </r>
       <r>   -0.3528    1.0000 </r>
       <r>   -0.3199    1.0000 </r>
       <r>   -0.2949    1.0000 </r>
       <r>   -0.2645    1.0000 </r>
       <r>   -0.2492    1.0000 </r>
       <r>   -0.2252    1.0000 </r>
       <r>   -0.2172    1.0000 </r>
       <r>   -0.2028    1.0000 </r>
       <r>   -0.1958    1.0000 </r>
       <r>   -0.1896    1.0000 </r>
       <r>   -0.1732    1.0000 </r>
       <r>   -0.1482    1.0000 </r>
       <r>   -0.1320    1.0000 </r>
       <r>   -0.1280    1.0000 </r>
       <r>   -0.1274    1.0000 </r>
       <r>   -0.1240    1.0000 </r>
       <r>   -0.1229    1.0000 </r>
       <r>   -0.1107    1.0000 </r>
       <r>   -0.0827    1.0000 </r>
       <r>   -0.0721    1.0000 </r>
       <r>   -0.0640    1.0000 </r>
       <r>   -0.0566    1.0000 </r>
       <r>   -0.0471    1.0000 </r>
       <r>   -0.0301    1.0000 </r>
       <r>   -0.0095    1.0000 </r>
       <r>    0.0598    1.0000 </r>
       <r>    0.0841    1.0000 </r>
       <r>    0.0897    1.0000 </r>
       <r>    0.1012    1.0000 </r>
       <r>    0.1290    1.0000 </r>
       <r>    0.1407    1.0000 </r>
       <r>    0.1495    1.0000 </r>
       <r>    0.1533    1.0000 </r>
       <r>    0.1736    1.0000 </r>
       <r>    0.1771    1.0000 </r>
       <r>    0.2204    1.0001 </r>
       <r>    0.2344    1.0001 </r>
       <r>    0.2431    1.0001 </r>
       <r>    0.2665    1.0002 </r>
       <r>    0.2761    1.0003 </r>
       <r>    0.2872    1.0004 </r>
       <r>    0.2922    1.0005 </r>
       <r>    0.2986    1.0005 </r>
       <r>    0.3029    1.0006 </r>
       <r>    0.3076    1.0007 </r>
       <r>    0.3205    1.0009 </r>
       <r>    0.3242    1.0010 </r>
       <r>    0.3288    1.0011 </r>
       <r>    0.3526    1.0019 </r>
       <r>    0.3608    1.0022 </r>
       <r>    0.3769    1.0030 </r>
       <r>    0.3948    1.0043 </r>
       <r>    0.4033    1.0050 </r>
       <r>    0.4109    1.0057 </r>
       <r>    0.4160    1.0062 </r>
       <r>    0.4309    1.0080 </r>
       <r>    0.4705    1.0144 </r>
       <r>    0.4785    1.0160 </r>
       <r>    0.4917    1.0188 </r>
       <r>    0.5005    1.0207 </r>
       <r>    0.5537    1.0323 </r>
       <r>    0.5605    1.0334 </r>
       <r>    0.5816    1.0354 </r>
       <r>    0.5915    1.0353 </r>
       <r>    0.6103    1.0328 </r>
       <r>    0.6140    1.0318 </r>
       <r>    0.6268    1.0270 </r>
       <r>    0.6498    1.0123 </r>
       <r>    0.6606    1.0019 </r>
       <r>    0.7165    0.9067 </r>
       <r>    0.7657    0.7599 </r>
       <r>    0.7906    0.6660 </r>
       <r>    0.8210    0.5411 </r>
       <r>    0.8715    0.3314 </r>
       <r>    0.8920    0.2539 </r>
       <r>    0.9157    0.1739 </r>
       <r>    0.9291    0.1345 </r>
       <r>    0.9469    0.0888 </r>
       <r>    0.9787    0.0269 </r>
       <r>    1.0248   -0.0218 </r>
       <r>    1.0631   -0.0348 </r>
       <r>    1.2133   -0.0105 </r>
       <r>    1.2739   -0.0037 </r>
       <r>    1.2897   -0.0028 </r>
       <r>    1.5461   -0.0000 </r>
       <r>    1.6298   -0.0000 </r>
       <r>    1.7330   -0.0000 </r>
       <r>    1.7460   -0.0000 </r>
       <r>    1.8888   -0.0000 </r>
       <r>    1.9592   -0.0000 </r>
       <r>    2.6425   -0.0000 </r>
       <r>    2.7246   -0.0000 </r>
       <r>    2.8067   -0.0000 </r>
       <r>    3.2090   -0.0000 </r>
       <r>    3.3974   -0.0000 </r>
       <r>    3.4922   -0.0000 </r>
       <r>    3.6058   -0.0000 </r>
       <r>    3.9953   -0.0000 </r>
       <r>    4.1118   -0.0000 </r>
       <r>    4.7963   -0.0000 </r>
       <r>    4.9084   -0.0000 </r>
       <r>    4.9911   -0.0000 </r>
       <r>    5.0401   -0.0000 </r>
       <r>    5.2078   -0.0000 </r>
       <r>    5.2963   -0.0000 </r>
       <r>    5.3223   -0.0000 </r>
       <r>    5.3627   -0.0000 </r>
       <r>    5.3754   -0.0000 </r>
       <r>    5.3845   -0.0000 </r>
       <r>    5.4044   -0.0000 </r>
       <r>    5.4764   -0.0000 </r>
       <r>    5.9867   -0.0000 </r>
       <r>    6.0308   -0.0000 </r>
       <r>    6.0448   -0.0000 </r>
      </set>
      <set comment="kpoint 2">
       <r>  -18.8058    1.0000 </r>
       <r>  -18.6549    1.0000 </r>
       <r>  -18.5864    1.0000 </r>
       <r>   -8.3798    1.0000 </r>
       <r>   -7.6925    1.0000 </r>
       <r>   -6.8278    1.0000 </r>
       <r>   -6.6359    1.0000 </r>
       <r>   -6.4762    1.0000 </r>
       <r>   -6.4182    1.0000 </r>
       <r>   -6.1845    1.0000 </r>
       <r>   -6.1302    1.0000 </r>
       <r>   -6.1023    1.0000 </r>
       <r>   -6.0572    1.0000 </r>
       <r>   -5.9585    1.0000 </r>
       <r>   -5.8882    1.0000 </r>
       <r>   -5.8319    1.0000 </r>
       <r>   -5.7538    1.0000 </r>
       <r>   -5.7348    1.0000 </r>
       <r>   -5.6999    1.0000 </r>
       <r>   -5.6724    1.0000 </r>
       <r>   -5.6342    1.0000 </r>
       <r>   -5.6296    1.0000 </r>
       <r>   -5.5495    1.0000 </r>
       <r>   -5.4312    1.0000 </r>
       <r>   -5.4024    1.0000 </r>
       <r>   -5.3160    1.0000 </r>
       <r>   -5.3035    1.0000 </r>
       <r>   -5.2854    1.0000 </r>
       <r>   -5.2703    1.0000 </r>
       <r>   -5.2557    1.0000 </r>
       <r>   -5.1864    1.0000 </r>
       <r>   -5.1832    1.0000 </r>
       <r>   -5.1401    1.0000 </r>
       <r>   -5.0464    1.0000 </r>
       <r>   -5.0038    1.0000 </r>
       <r>   -4.9961    1.0000 </r>
       <r>   -4.9421    1.0000 </r>
       <r>   -4.8971    1.0000 </r>
       <r>   -4.8562    1.0000 </r>
       <r>   -4.8038    1.0000 </r>
       <r>   -4.7888    1.0000 </r>
       <r>   -4.7692    1.0000 </r>
       <r>   -4.7557    1.0000 </r>
       <r>   -4.7289    1.0000 </r>
       <r>   -4.6674    1.0000 </r>
       <r>   -4.6554    1.0000 </r>
       <r>   -4.6464    1.0000 </r>
       <r>   -4.5757    1.0000 </r>
       <r>   -4.5661    1.0000 </r>
       <r>   -4.5577    1.0000 </r>
       <r>   -4.4945    1.0000 </r>
       <r>   -4.4730    1.0000 </r>
       <r>   -4.4619    1.0000 </r>
       <r>   -4.4478    1.0000 </r>
       <r>   -4.4138    1.0000 </r>
       <r>   -4.4074    1.0000 </r>
       <r>   -4.3930    1.0000 </r>
       <r>   -4.3511    1.0000 </r>
       <r>   -4.3262    1.0000 </r>
       <r>   -4.3053    1.0000 </r>
       <r>   -4.2912    1.0000 </r>
       <r>   -4.2609    1.0000 </r>
       <r>   -4.2503    1.0000 </r>
       <r>   -4.2271    1.0000 </r>
       <r>   -4.2019    1.0000 </r>
       <r>   -4.1852    1.0000 </r>
       <r>   -4.1249    1.0000 </r>
       <r>   -4.1078    1.0000 </r>
       <r>   -4.0583    1.0000 </r>
       <r>   -4.0269    1.0000 </r>
       <r>   -3.9960    1.0000 </r>
       <r>   -3.9845    1.0000 </r>
       <r>   -3.9697    1.0000 </r>
       <r>   -3.9480    1.0000 </r>
       <r>   -3.8796    1.0000 </r>
       <r>   -3.8529    1.0000 </r>
       <r>   -3.8183    1.0000 </r>
       <r>   -3.7579    1.0000 </r>
       <r>   -3.7264    1.0000 </r>
       <r>   -3.7055    1.0000 </r>
       <r>   -3.6650    1.0000 </r>
       <r>   -3.6618    1.0000 </r>
       <r>   -3.6072    1.0000 </r>
       <r>   -3.5990    1.0000 </r>
       <r>   -3.5842    1.0000 </r>
       <r>   -3.5696    1.0000 </r>
       <r>   -3.5055    1.0000 </r>
       <r>   -3.4659    1.0000 </r>
       <r>   -3.4428    1.0000 </r>
       <r>   -3.4005    1.0000 </r>
       <r>   -3.3849    1.0000 </r>
       <r>   -3.3524    1.0000 </r>
       <r>   -3.3148    1.0000 </r>
       <r>   -3.2907    1.0000 </r>
       <r>   -3.2269    1.0000 </r>
       <r>   -3.1985    1.0000 </r>
       <r>   -3.1718    1.0000 </r>
       <r>   -3.1644    1.0000 </r>
       <r>   -3.1536    1.0000 </r>
       <r>   -3.1139    1.0000 </r>
       <r>   -3.0946    1.0000 </r>
       <r>   -3.0589    1.0000 </r>
       <r>   -3.0361    1.0000 </r>
       <r>   -2.9862    1.0000 </r>
       <r>   -2.9406    1.0000 </r>
       <r>   -2.9254    1.0000 </r>
       <r>   -2.8745    1.0000 </r>
       <r>   -2.8587    1.0000 </r>
       <r>   -2.8394    1.0000 </r>
       <r>   -2.8103    1.0000 </r>
       <r>   -2.7891    1.0000 </r>
       <r>   -2.7832    1.0000 </r>
       <r>   -2.7565    1.0000 </r>
       <r>   -2.7394    1.0000 </r>
       <r>   -2.7288    1.0000 </r>
       <r>   -2.7090    1.0000 </r>
       <r>   -2.6546    1.0000 </r>
       <r>   -2.6464    1.0000 </r>
       <r>   -2.6370    1.0000 </r>
       <r>   -2.6138    1.0000 </r>
       <r>   -2.6092    1.0000 </r>
       <r>   -2.5940    1.0000 </r>
       <r>   -2.5745    1.0000 </r>
       <r>   -2.5433    1.0000 </r>
       <r>   -2.5267    1.0000 </r>
       <r>   -2.5216    1.0000 </r>
       <r>   -2.5161    1.0000 </r>
       <r>   -2.5023    1.0000 </r>
       <r>   -2.4956    1.0000 </r>
       <r>   -2.4804    1.0000 </r>
       <r>   -2.4641    1.0000 </r>
       <r>   -2.4307    1.0000 </r>
       <r>   -2.4168    1.0000 </r>
       <r>   -2.3970    1.0000 </r>
       <r>   -2.3826    1.0000 </r>
       <r>   -2.3647    1.0000 </r>
       <r>   -2.3583    1.0000 </r>
       <r>   -2.3449    1.0000 </r>
       <r>   -2.3329    1.0000 </r>
       <r>   -2.3182    1.0000 </r>
       <r>   -2.3031    1.0000 </r>
       <r>   -2.2948    1.0000 </r>
       <r>   -2.2793    1.0000 </r>
       <r>   -2.2568    1.0000 </r>
       <r>   -2.2483    1.0000 </r>
       <r>   -2.2378    1.0000 </r>
       <r>   -2.2232    1.0000 </r>
       <r>   -2.2090    1.0000 </r>
       <r>   -2.1975    1.0000 </r>
       <r>   -2.1730    1.0000 </r>
       <r>   -2.1598    1.0000 </r>
       <r>   -2.1450    1.0000 </r>
       <r>   -2.1113    1.0000 </r>
       <r>   -2.0882    1.0000 </r>
       <r>   -2.0479    1.0000 </r>
       <r>   -2.0333    1.0000 </r>
       <r>   -2.0275    1.0000 </r>
       <r>   -1.9987    1.0000 </r>
       <r>   -1.9732    1.0000 </r>
       <r>   -1.9543    1.0000 </r>
       <r>   -1.9499    1.0000 </r>
       <r>   -1.9347    1.0000 </r>
       <r>   -1.9284    1.0000 </r>
       <r>   -1.9112    1.0000 </r>
       <r>   -1.9014    1.0000 </r>
       <r>   -1.8905    1.0000 </r>
       <r>   -1.8459    1.0000 </r>
       <r>   -1.8248    1.0000 </r>
       <r>   -1.7800    1.0000 </r>
       <r>   -1.7492    1.0000 </r>
       <r>   -1.7252    1.0000 </r>
       <r>   -1.6900    1.0000 </r>
       <r>   -1.6801    1.0000 </r>
       <r>   -1.6710    1.0000 </r>
       <r>   -1.6210    1.0000 </r>
       <r>   -1.6194    1.0000 </r>
       <r>   -1.6125    1.0000 </r>
       <r>   -1.5470    1.0000 </r>
       <r>   -1.5010    1.0000 </r>
       <r>   -1.4839    1.0000 </r>
       <r>   -1.4524    1.0000 </r>
       <r>   -1.4102    1.0000 </r>
       <r>   -1.3577    1.0000 </r>
       <r>   -1.3253    1.0000 </r>
       <r>   -1.3194    1.0000 </r>
       <r>   -1.3029    1.0000 </r>
       <r>   -1.2668    1.0000 </r>
       <r>   -1.2307    1.0000 </r>
       <r>   -1.1722    1.0000 </r>
       <r>   -1.1321    1.0000 </r>
       <r>   -1.1260    1.0000 </r>
       <r>   -1.1035    1.0000 </r>
       <r>   -1.0674    1.0000 </r>
       <r>   -1.0537    1.0000 </r>
       <r>   -1.0241    1.0000 </r>
       <r>   -0.9854    1.0000 </r>
       <r>   -0.9641    1.0000 </r>
       <r>   -0.9423    1.0000 </r>
       <r>   -0.9138    1.0000 </r>
       <r>   -0.8944    1.0000 </r>
       <r>   -0.8897    1.0000 </r>
       <r>   -0.8748    1.0000 </r>
       <r>   -0.8545    1.0000 </r>
       <r>   -0.8445    1.0000 </r>
       <r>   -0.8321    1.0000 </r>
       <r>   -0.8176    1.0000 </r>
       <r>   -0.8128    1.0000 </r>
       <r>   -0.7751    1.0000 </r>
       <r>   -0.7685    1.0000 </r>
       <r>   -0.7381    1.0000 </r>
       <r>   -0.6951    1.0000 </r>
       <r>   -0.6747    1.0000 </r>
       <r>   -0.6608    1.0000 </r>
       <r>   -0.6300    1.0000 </r>
       <r>   -0.6157    1.0000 </r>
       <r>   -0.6005    1.0000 </r>
       <r>   -0.5881    1.0000 </r>
       <r>   -0.5555    1.0000 </r>
       <r>   -0.5332    1.0000 </r>
       <r>   -0.5082    1.0000 </r>
       <r>   -0.4965    1.0000 </r>
       <r>   -0.4550    1.0000 </r>
       <r>   -0.4249    1.0000 </r>
       <r>   -0.3935    1.0000 </r>
       <r>   -0.3740    1.0000 </r>
       <r>   -0.3541    1.0000 </r>
       <r>   -0.3353    1.0000 </r>
       <r>   -0.2959    1.0000 </r>
       <r>   -0.2769    1.0000 </r>
       <r>   -0.2504    1.0000 </r>
       <r>   -0.2079    1.0000 </r>
       <r>   -0.1923    1.0000 </r>
       <r>   -0.1760    1.0000 </r>
       <r>   -0.1538    1.0000 </r>
       <r>   -0.0935    1.0000 </r>
       <r>   -0.0733    1.0000 </r>
       <r>   -0.0651    1.0000 </r>
       <r>   -0.0513    1.0000 </r>
       <r>   -0.0325    1.0000 </r>
       <r>   -0.0197    1.0000 </r>
       <r>    0.0052    1.0000 </r>
       <r>    0.0338    1.0000 </r>
       <r>    0.0486    1.0000 </r>
       <r>    0.0689    1.0000 </r>
       <r>    0.0985    1.0000 </r>
       <r>    0.1127    1.0000 </r>
       <r>    0.1232    1.0000 </r>
       <r>    0.1367    1.0000 </r>
       <r>    0.1640    1.0000 </r>
       <r>    0.1902    1.0000 </r>
       <r>    0.2115    1.0001 </r>
       <r>    0.2282    1.0001 </r>
       <r>    0.2432    1.0001 </r>
       <r>    0.2538    1.0002 </r>
       <r>    0.2692    1.0003 </r>
       <r>    0.2941    1.0005 </r>
       <r>    0.3086    1.0007 </r>
       <r>    0.3548    1.0019 </r>
       <r>    0.3738    1.0029 </r>
       <r>    0.3984    1.0046 </r>
       <r>    0.4113    1.0058 </r>
       <r>    0.4202    1.0067 </r>
       <r>    0.4302    1.0079 </r>
       <r>    0.4610    1.0126 </r>
       <r>    0.4740    1.0151 </r>
       <r>    0.5003    1.0207 </r>
       <r>    0.5242    1.0262 </r>
       <r>    0.5266    1.0267 </r>
       <r>    0.5590    1.0332 </r>
       <r>    0.5813    1.0354 </r>
       <r>    0.5926    1.0353 </r>
       <r>    0.6018    1.0344 </r>
       <r>    0.6067    1.0335 </r>
       <r>    0.6183    1.0304 </r>
       <r>    0.6335    1.0236 </r>
       <r>    0.6499    1.0122 </r>
       <r>    0.6852    0.9692 </r>
       <r>    0.6996    0.9435 </r>
       <r>    0.7174    0.9045 </r>
       <r>    0.7264    0.8818 </r>
       <r>    0.7374    0.8514 </r>
       <r>    0.7587    0.7842 </r>
       <r>    0.7821    0.6994 </r>
       <r>    0.8062    0.6032 </r>
       <r>    0.8170    0.5581 </r>
       <r>    0.8433    0.4469 </r>
       <r>    0.8523    0.4093 </r>
       <r>    0.8648    0.3584 </r>
       <r>    0.8846    0.2812 </r>
       <r>    0.9036    0.2133 </r>
       <r>    0.9176    0.1681 </r>
       <r>    0.9344    0.1200 </r>
       <r>    0.9597    0.0608 </r>
       <r>    0.9804    0.0244 </r>
       <r>    0.9996   -0.0005 </r>
       <r>    1.0601   -0.0344 </r>
       <r>    1.0763   -0.0355 </r>
       <r>    1.0954   -0.0341 </r>
       <r>    1.1078   -0.0323 </r>
       <r>    1.1687   -0.0190 </r>
       <r>    1.2005   -0.0126 </r>
       <r>    1.3077   -0.0019 </r>
       <r>    1.3761   -0.0004 </r>
       <r>    1.5750   -0.0000 </r>
       <r>    1.7599   -0.0000 </r>
       <r>    1.7936   -0.0000 </r>
       <r>    1.9167   -0.0000 </r>
       <r>    1.9644   -0.0000 </r>
       <r>    2.1153   -0.0000 </r>
       <r>    2.2347   -0.0000 </r>
       <r>    2.6055   -0.0000 </r>
       <r>    2.8198   -0.0000 </r>
       <r>    2.9767   -0.0000 </r>
       <r>    3.1397   -0.0000 </r>
       <r>    3.3993   -0.0000 </r>
       <r>    3.5803   -0.0000 </r>
       <r>    3.9463   -0.0000 </r>
       <r>    4.0250   -0.0000 </r>
       <r>    4.2268   -0.0000 </r>
       <r>    4.2570   -0.0000 </r>
       <r>    4.3805   -0.0000 </r>
       <r>    4.6112   -0.0000 </r>
       <r>    4.7654   -0.0000 </r>
       <r>    4.8523   -0.0000 </r>
       <r>    4.9136   -0.0000 </r>
       <r>    4.9984   -0.0000 </r>
       <r>    5.4471   -0.0000 </r>
       <r>    5.4896   -0.0000 </r>
       <r>    5.5475   -0.0000 </r>
       <r>    5.5695   -0.0000 </r>
       <r>    5.6996   -0.0000 </r>
       <r>    5.7981   -0.0000 </r>
       <r>    5.9897   -0.0000 </r>
       <r>    6.1070   -0.0000 </r>
      </set>
      <set comment="kpoint 3">
       <r>  -18.8082    1.0000 </r>
       <r>  -18.6520    1.0000 </r>
       <r>  -18.5867    1.0000 </r>
       <r>   -8.3803    1.0000 </r>
       <r>   -7.6953    1.0000 </r>
       <r>   -6.8534    1.0000 </r>
       <r>   -6.6408    1.0000 </r>
       <r>   -6.5259    1.0000 </r>
       <r>   -6.3988    1.0000 </r>
       <r>   -6.1808    1.0000 </r>
       <r>   -6.1415    1.0000 </r>
       <r>   -6.0794    1.0000 </r>
       <r>   -6.0046    1.0000 </r>
       <r>   -5.9487    1.0000 </r>
       <r>   -5.8995    1.0000 </r>
       <r>   -5.8336    1.0000 </r>
       <r>   -5.7858    1.0000 </r>
       <r>   -5.7452    1.0000 </r>
       <r>   -5.6894    1.0000 </r>
       <r>   -5.6681    1.0000 </r>
       <r>   -5.6319    1.0000 </r>
       <r>   -5.5693    1.0000 </r>
       <r>   -5.5304    1.0000 </r>
       <r>   -5.4807    1.0000 </r>
       <r>   -5.4014    1.0000 </r>
       <r>   -5.3158    1.0000 </r>
       <r>   -5.3062    1.0000 </r>
       <r>   -5.2858    1.0000 </r>
       <r>   -5.2756    1.0000 </r>
       <r>   -5.2387    1.0000 </r>
       <r>   -5.1751    1.0000 </r>
       <r>   -5.1570    1.0000 </r>
       <r>   -5.1268    1.0000 </r>
       <r>   -5.0606    1.0000 </r>
       <r>   -5.0182    1.0000 </r>
       <r>   -4.9685    1.0000 </r>
       <r>   -4.9411    1.0000 </r>
       <r>   -4.8946    1.0000 </r>
       <r>   -4.8477    1.0000 </r>
       <r>   -4.8143    1.0000 </r>
       <r>   -4.7941    1.0000 </r>
       <r>   -4.7781    1.0000 </r>
       <r>   -4.7422    1.0000 </r>
       <r>   -4.7211    1.0000 </r>
       <r>   -4.6760    1.0000 </r>
       <r>   -4.6543    1.0000 </r>
       <r>   -4.6434    1.0000 </r>
       <r>   -4.5851    1.0000 </r>
       <r>   -4.5760    1.0000 </r>
       <r>   -4.5487    1.0000 </r>
       <r>   -4.5075    1.0000 </r>
       <r>   -4.4789    1.0000 </r>
       <r>   -4.4643    1.0000 </r>
       <r>   -4.4439    1.0000 </r>
       <r>   -4.4112    1.0000 </r>
       <r>   -4.4032    1.0000 </r>
       <r>   -4.3835    1.0000 </r>
       <r>   -4.3591    1.0000 </r>
       <r>   -4.3147    1.0000 </r>
       <r>   -4.3061    1.0000 </r>
       <r>   -4.2879    1.0000 </r>
       <r>   -4.2732    1.0000 </r>
       <r>   -4.2550    1.0000 </r>
       <r>   -4.2265    1.0000 </r>
       <r>   -4.2205    1.0000 </r>
       <r>   -4.1891    1.0000 </r>
       <r>   -4.1351    1.0000 </r>
       <r>   -4.0998    1.0000 </r>
       <r>   -4.0507    1.0000 </r>
       <r>   -4.0049    1.0000 </r>
       <r>   -3.9970    1.0000 </r>
       <r>   -3.9890    1.0000 </r>
       <r>   -3.9697    1.0000 </r>
       <r>   -3.9529    1.0000 </r>
       <r>   -3.8867    1.0000 </r>
       <r>   -3.8626    1.0000 </r>
       <r>   -3.8199    1.0000 </r>
       <r>   -3.7702    1.0000 </r>
       <r>   -3.7247    1.0000 </r>
       <r>   -3.7087    1.0000 </r>
       <r>   -3.6672    1.0000 </r>
       <r>   -3.6570    1.0000 </r>
       <r>   -3.6003    1.0000 </r>
       <r>   -3.5934    1.0000 </r>
       <r>   -3.5880    1.0000 </r>
       <r>   -3.5689    1.0000 </r>
       <r>   -3.4988    1.0000 </r>
       <r>   -3.4874    1.0000 </r>
       <r>   -3.4411    1.0000 </r>
       <r>   -3.4149    1.0000 </r>
       <r>   -3.3875    1.0000 </r>
       <r>   -3.3406    1.0000 </r>
       <r>   -3.3187    1.0000 </r>
       <r>   -3.3034    1.0000 </r>
       <r>   -3.2221    1.0000 </r>
       <r>   -3.1914    1.0000 </r>
       <r>   -3.1757    1.0000 </r>
       <r>   -3.1662    1.0000 </r>
       <r>   -3.1433    1.0000 </r>
       <r>   -3.1285    1.0000 </r>
       <r>   -3.0918    1.0000 </r>
       <r>   -3.0680    1.0000 </r>
       <r>   -3.0356    1.0000 </r>
       <r>   -2.9806    1.0000 </r>
       <r>   -2.9395    1.0000 </r>
       <r>   -2.9137    1.0000 </r>
       <r>   -2.8929    1.0000 </r>
       <r>   -2.8535    1.0000 </r>
       <r>   -2.8280    1.0000 </r>
       <r>   -2.8216    1.0000 </r>
       <r>   -2.8084    1.0000 </r>
       <r>   -2.7900    1.0000 </r>
       <r>   -2.7620    1.0000 </r>
       <r>   -2.7422    1.0000 </r>
       <r>   -2.7291    1.0000 </r>
       <r>   -2.7074    1.0000 </r>
       <r>   -2.6520    1.0000 </r>
       <r>   -2.6434    1.0000 </r>
       <r>   -2.6308    1.0000 </r>
       <r>   -2.6221    1.0000 </r>
       <r>   -2.6133    1.0000 </r>
       <r>   -2.6009    1.0000 </r>
       <r>   -2.5647    1.0000 </r>
       <r>   -2.5450    1.0000 </r>
       <r>   -2.5325    1.0000 </r>
       <r>   -2.5245    1.0000 </r>
       <r>   -2.5133    1.0000 </r>
       <r>   -2.5090    1.0000 </r>
       <r>   -2.4823    1.0000 </r>
       <r>   -2.4748    1.0000 </r>
       <r>   -2.4666    1.0000 </r>
       <r>   -2.4355    1.0000 </r>
       <r>   -2.4219    1.0000 </r>
       <r>   -2.4039    1.0000 </r>
       <r>   -2.3820    1.0000 </r>
       <r>   -2.3626    1.0000 </r>
       <r>   -2.3564    1.0000 </r>
       <r>   -2.3490    1.0000 </r>
       <r>   -2.3383    1.0000 </r>
       <r>   -2.3301    1.0000 </r>
       <r>   -2.3111    1.0000 </r>
       <r>   -2.2999    1.0000 </r>
[...]
       <r>   -18.2056    -0.6925     6.0279 </r>
       <r>   -18.1091    -0.2429     6.0045 </r>
       <r>   -18.0126    -0.0422     6.0004 </r>
       <r>   -17.9161    -0.0042     6.0000 </r>
       <r>   -17.8196    -0.0002     6.0000 </r>
       <r>   -17.7231    -0.0000     6.0000 </r>
       <r>   -17.6266    -0.0000     6.0000 </r>
       <r>   -17.5301    -0.0000     6.0000 </r>
       <r>   -17.4336    -0.0000     6.0000 </r>
       <r>   -17.3371    -0.0000     6.0000 </r>
       <r>   -17.2406     0.0000     6.0000 </r>
       <r>   -17.1441     0.0000     6.0000 </r>
       <r>   -17.0476     0.0000     6.0000 </r>
       <r>   -16.9511     0.0000     6.0000 </r>
       <r>   -16.8546     0.0000     6.0000 </r>
       <r>   -16.7581     0.0000     6.0000 </r>
       <r>   -16.6616     0.0000     6.0000 </r>
       <r>   -16.5651     0.0000     6.0000 </r>
       <r>   -16.4686     0.0000     6.0000 </r>
       <r>   -16.3721     0.0000     6.0000 </r>
       <r>   -16.2756     0.0000     6.0000 </r>
       <r>   -16.1792     0.0000     6.0000 </r>
       <r>   -16.0827     0.0000     6.0000 </r>
       <r>   -15.9862     0.0000     6.0000 </r>
       <r>   -15.8897     0.0000     6.0000 </r>
       <r>   -15.7932     0.0000     6.0000 </r>
       <r>   -15.6967     0.0000     6.0000 </r>
       <r>   -15.6002     0.0000     6.0000 </r>
       <r>   -15.5037     0.0000     6.0000 </r>
       <r>   -15.4072     0.0000     6.0000 </r>
       <r>   -15.3107     0.0000     6.0000 </r>
       <r>   -15.2142     0.0000     6.0000 </r>
       <r>   -15.1177     0.0000     6.0000 </r>
       <r>   -15.0212     0.0000     6.0000 </r>
       <r>   -14.9247     0.0000     6.0000 </r>
       <r>   -14.8282     0.0000     6.0000 </r>
       <r>   -14.7317     0.0000     6.0000 </r>
       <r>   -14.6352     0.0000     6.0000 </r>
       <r>   -14.5387     0.0000     6.0000 </r>
       <r>   -14.4422     0.0000     6.0000 </r>
       <r>   -14.3457     0.0000     6.0000 </r>
       <r>   -14.2492     0.0000     6.0000 </r>
       <r>   -14.1527     0.0000     6.0000 </r>
       <r>   -14.0562     0.0000     6.0000 </r>
       <r>   -13.9597     0.0000     6.0000 </r>
       <r>   -13.8632     0.0000     6.0000 </r>
       <r>   -13.7667     0.0000     6.0000 </r>
       <r>   -13.6702     0.0000     6.0000 </r>
       <r>   -13.5737     0.0000     6.0000 </r>
       <r>   -13.4772     0.0000     6.0000 </r>
       <r>   -13.3807     0.0000     6.0000 </r>
       <r>   -13.2842     0.0000     6.0000 </r>
       <r>   -13.1877     0.0000     6.0000 </r>
       <r>   -13.0912     0.0000     6.0000 </r>
       <r>   -12.9947     0.0000     6.0000 </r>
       <r>   -12.8982     0.0000     6.0000 </r>
       <r>   -12.8017     0.0000     6.0000 </r>
       <r>   -12.7052     0.0000     6.0000 </r>
       <r>   -12.6087     0.0000     6.0000 </r>
       <r>   -12.5122     0.0000     6.0000 </r>
       <r>   -12.4157     0.0000     6.0000 </r>
       <r>   -12.3192     0.0000     6.0000 </r>
       <r>   -12.2227     0.0000     6.0000 </r>
       <r>   -12.1262     0.0000     6.0000 </r>
       <r>   -12.0297     0.0000     6.0000 </r>
       <r>   -11.9332     0.0000     6.0000 </r>
       <r>   -11.8367     0.0000     6.0000 </r>
       <r>   -11.7402     0.0000     6.0000 </r>
       <r>   -11.6437     0.0000     6.0000 </r>
       <r>   -11.5472     0.0000     6.0000 </r>
       <r>   -11.4507     0.0000     6.0000 </r>
       <r>   -11.3542     0.0000     6.0000 </r>
       <r>   -11.2577     0.0000     6.0000 </r>
       <r>   -11.1612     0.0000     6.0000 </r>
       <r>   -11.0647     0.0000     6.0000 </r>
       <r>   -10.9682     0.0000     6.0000 </r>
       <r>   -10.8717     0.0000     6.0000 </r>
       <r>   -10.7752     0.0000     6.0000 </r>
       <r>   -10.6787     0.0000     6.0000 </r>
       <r>   -10.5822     0.0000     6.0000 </r>
       <r>   -10.4857     0.0000     6.0000 </r>
       <r>   -10.3892     0.0000     6.0000 </r>
       <r>   -10.2927     0.0000     6.0000 </r>
       <r>   -10.1962    -0.0000     6.0000 </r>
       <r>   -10.0997    -0.0000     6.0000 </r>
       <r>   -10.0032    -0.0000     6.0000 </r>
       <r>    -9.9068    -0.0000     6.0000 </r>
       <r>    -9.8103    -0.0000     6.0000 </r>
       <r>    -9.7138    -0.0000     6.0000 </r>
       <r>    -9.6173    -0.0000     6.0000 </r>
       <r>    -9.5208    -0.0000     6.0000 </r>
       <r>    -9.4243    -0.0000     6.0000 </r>
       <r>    -9.3278    -0.0000     6.0000 </r>
       <r>    -9.2313    -0.0000     6.0000 </r>
       <r>    -9.1348    -0.0001     6.0000 </r>
       <r>    -9.0383    -0.0008     5.9999 </r>
       <r>    -8.9418    -0.0057     5.9994 </r>
       <r>    -8.8453    -0.0252     5.9969 </r>
       <r>    -8.7488    -0.0593     5.9912 </r>
       <r>    -8.6523    -0.0164     5.9896 </r>
       <r>    -8.5558     0.3754     6.0258 </r>
       <r>    -8.4593     1.2584     6.1473 </r>
       <r>    -8.3628     1.9486     6.3353 </r>
       <r>    -8.2663     1.7310     6.5024 </r>
       <r>    -8.1698     1.5618     6.6531 </r>
       <r>    -8.0733     2.3730     6.8821 </r>
       <r>    -7.9768     3.0563     7.1770 </r>
       <r>    -7.8803     2.6043     7.4283 </r>
       <r>    -7.7838     2.0297     7.6242 </r>
       <r>    -7.6873     2.8112     7.8954 </r>
       <r>    -7.5908     4.6205     8.3413 </r>
       <r>    -7.4943     5.9218     8.9128 </r>
       <r>    -7.3978     6.1042     9.5018 </r>
       <r>    -7.3013     5.2552    10.0089 </r>
       <r>    -7.2048     3.2990    10.3273 </r>
       <r>    -7.1083     2.0104    10.5213 </r>
       <r>    -7.0118     4.2608    10.9324 </r>
       <r>    -6.9153     9.0343    11.8042 </r>
       <r>    -6.8188    11.2763    12.8924 </r>
       <r>    -6.7223     9.3283    13.7925 </r>
       <r>    -6.6258     8.0642    14.5707 </r>
       <r>    -6.5293    10.4983    15.5838 </r>
       <r>    -6.4328    13.0880    16.8467 </r>
       <r>    -6.3363    13.2689    18.1272 </r>
       <r>    -6.2398    14.5666    19.5328 </r>
       <r>    -6.1433    19.0376    21.3699 </r>
       <r>    -6.0468    22.9382    23.5834 </r>
       <r>    -5.9503    24.6210    25.9593 </r>
       <r>    -5.8538    26.6664    28.5326 </r>
       <r>    -5.7573    30.6819    31.4933 </r>
       <r>    -5.6608    35.6055    34.9292 </r>
       <r>    -5.5643    39.4148    38.7327 </r>
       <r>    -5.4678    42.9310    42.8755 </r>
       <r>    -5.3713    48.2588    47.5324 </r>
       <r>    -5.2748    53.8498    52.7288 </r>
       <r>    -5.1783    57.5527    58.2825 </r>
       <r>    -5.0818    60.7099    64.1410 </r>
       <r>    -4.9853    65.6200    70.4732 </r>
       <r>    -4.8888    70.7611    77.3015 </r>
       <r>    -4.7923    71.4659    84.1979 </r>
       <r>    -4.6958    68.1579    90.7750 </r>
       <r>    -4.5993    67.7955    97.3172 </r>
       <r>    -4.5028    75.2278   104.5765 </r>
       <r>    -4.4063    83.8453   112.6675 </r>
       <r>    -4.3098    82.6352   120.6416 </r>
       <r>    -4.2133    72.8372   127.6703 </r>
       <r>    -4.1168    63.1157   133.7609 </r>
       <r>    -4.0203    58.5647   139.4123 </r>
       <r>    -3.9238    58.3908   145.0469 </r>
       <r>    -3.8273    60.4557   150.8808 </r>
       <r>    -3.7308    65.4674   157.1983 </r>
       <r>    -3.6343    70.5227   164.0037 </r>
       <r>    -3.5379    71.6612   170.9188 </r>
       <r>    -3.4414    73.1246   177.9753 </r>
       <r>    -3.3449    78.0372   185.5057 </r>
       <r>    -3.2484    82.4898   193.4659 </r>
       <r>    -3.1519    84.4888   201.6189 </r>
       <r>    -3.0554    82.7981   209.6088 </r>
       <r>    -2.9589    79.3323   217.2642 </r>
       <r>    -2.8624    80.4187   225.0245 </r>
       <r>    -2.7659    86.4106   233.3630 </r>
       <r>    -2.6694    93.5461   242.3901 </r>
       <r>    -2.5729   101.6719   252.2013 </r>
       <r>    -2.4764   110.6367   262.8775 </r>
       <r>    -2.3799   116.7722   274.1459 </r>
       <r>    -2.2834   117.5597   285.4902 </r>
       <r>    -2.1869   113.1336   296.4074 </r>
       <r>    -2.0904   106.8531   306.7186 </r>
       <r>    -1.9939   104.5279   316.8054 </r>
       <r>    -1.8974   104.6714   326.9060 </r>
       <r>    -1.8009    99.4491   336.5027 </r>
       <r>    -1.7044    87.6259   344.9585 </r>
       <r>    -1.6079    74.4129   352.1392 </r>
       <r>    -1.5114    66.5191   358.5582 </r>
       <r>    -1.4149    67.8427   365.1049 </r>
       <r>    -1.3184    74.0673   372.2523 </r>
       <r>    -1.2219    79.5604   379.9297 </r>
       <r>    -1.1254    85.0787   388.1397 </r>
       <r>    -1.0289    92.1022   397.0274 </r>
       <r>    -0.9324    96.0757   406.2986 </r>
       <r>    -0.8359    90.9908   415.0791 </r>
       <r>    -0.7394    80.4116   422.8387 </r>
       <r>    -0.6429    74.7165   430.0487 </r>
       <r>    -0.5464    75.2018   437.3055 </r>
       <r>    -0.4499    76.6903   444.7060 </r>
       <r>    -0.3534    79.6441   452.3916 </r>
       <r>    -0.2569    84.2470   460.5213 </r>
       <r>    -0.1604    85.7497   468.7960 </r>
       <r>    -0.0639    82.7241   476.7788 </r>
       <r>     0.0326    78.7571   484.3787 </r>
       <r>     0.1291    76.4954   491.7604 </r>
       <r>     0.2256    76.2946   499.1227 </r>
       <r>     0.3221    78.5232   506.7001 </r>
       <r>     0.4186    84.3131   514.8361 </r>
       <r>     0.5151    93.9747   523.9046 </r>
       <r>     0.6116   104.3757   533.9767 </r>
       <r>     0.7081   110.3464   544.6249 </r>
       <r>     0.8046   109.8281   555.2232 </r>
       <r>     0.9011   102.0308   565.0690 </r>
       <r>     0.9976    87.9735   573.5583 </r>
       <r>     1.0941    73.8187   580.6817 </r>
       <r>     1.1906    61.0321   586.5712 </r>
       <r>     1.2871    46.0220   591.0122 </r>
       <r>     1.3836    30.8569   593.9899 </r>
       <r>     1.4801    20.5343   595.9714 </r>
       <r>     1.5766    16.7431   597.5871 </r>
       <r>     1.6731    16.9958   599.2272 </r>
       <r>     1.7696    17.7071   600.9359 </r>
       <r>     1.8661    18.0628   602.6789 </r>
       <r>     1.9626    18.7313   604.4865 </r>
       <r>     2.0591    19.4055   606.3591 </r>
       <r>     2.1556    20.5345   608.3406 </r>
       <r>     2.2521    21.6549   610.4303 </r>
       <r>     2.3486    19.8438   612.3452 </r>
       <r>     2.4451    15.7479   613.8648 </r>
       <r>     2.5416    13.7341   615.1901 </r>
       <r>     2.6381    14.8517   616.6233 </r>
       <r>     2.7346    16.2564   618.1920 </r>
       <r>     2.8310    15.6590   619.7031 </r>
       <r>     2.9275    14.3336   621.0863 </r>
       <r>     3.0240    14.8448   622.5188 </r>
       <r>     3.1205    16.6390   624.1244 </r>
       <r>     3.2170    17.0441   625.7691 </r>
       <r>     3.3135    16.2169   627.3340 </r>
       <r>     3.4100    17.0787   628.9821 </r>
       <r>     3.5065    18.9092   630.8068 </r>
       <r>     3.6030    18.4562   632.5878 </r>
       <r>     3.6995    16.2010   634.1512 </r>
       <r>     3.7960    14.7726   635.5767 </r>
       <r>     3.8925    15.3614   637.0591 </r>
       <r>     3.9890    16.7151   638.6720 </r>
       <r>     4.0855    16.9240   640.3052 </r>
       <r>     4.1820    17.0457   641.9501 </r>
       <r>     4.2785    17.9945   643.6865 </r>
       <r>     4.3750    17.4799   645.3733 </r>
       <r>     4.4715    14.4056   646.7634 </r>
       <r>     4.5680    11.7066   647.8931 </r>
       <r>     4.6645    12.5975   649.1087 </r>
       <r>     4.7610    15.5231   650.6067 </r>
       <r>     4.8575    17.2896   652.2751 </r>
       <r>     4.9540    16.9285   653.9087 </r>
       <r>     5.0505    14.4089   655.2991 </r>
       <r>     5.1470    11.6418   656.4225 </r>
       <r>     5.2435    11.0420   657.4881 </r>
       <r>     5.3400    13.0364   658.7461 </r>
       <r>     5.4365    16.6264   660.3505 </r>
       <r>     5.5330    18.2899   662.1154 </r>
       <r>     5.6295    15.6695   663.6275 </r>
       <r>     5.7260    11.2519   664.7133 </r>
       <r>     5.8225     7.6481   665.4513 </r>
       <r>     5.9190     5.8021   666.0112 </r>
       <r>     6.0155     6.3717   666.6261 </r>
       <r>     6.1120     7.3403   667.3344 </r>
       <r>     6.2085     5.4879   667.8640 </r>
       <r>     6.3050     1.9384   668.0511 </r>
       <r>     6.4015    -0.0776   668.0436 </r>
       <r>     6.4980    -0.3148   668.0132 </r>
       <r>     6.5945    -0.1142   668.0022 </r>
       <r>     6.6910    -0.0202   668.0002 </r>
       <r>     6.7875    -0.0020   668.0000 </r>
       <r>     6.8840    -0.0001   668.0000 </r>
       <r>     6.9805    -0.0000   668.0000 </r>
       <r>     7.0770    -0.0000   668.0000 </r>
       <r>     7.1735    -0.0000   668.0000 </r>
       <r>     7.2700    -0.0000   668.0000 </r>
       <r>     7.3665    -0.0000   668.0000 </r>
       <r>     7.4630     0.0000   668.0000 </r>
       <r>     7.5595     0.0000   668.0000 </r>
       <r>     7.6560     0.0000   668.0000 </r>
       <r>     7.7525     0.0000   668.0000 </r>
       <r>     7.8490     0.0000   668.0000 </r>
       <r>     7.9455     0.0000   668.0000 </r>
       <r>     8.0420     0.0000   668.0000 </r>
       <r>     8.1385     0.0000   668.0000 </r>
      </set>
     </set>
    </array>
   </total>
  </dos>
 </calculation>
 <structure name="finalpos" >
  <crystal>
   <varray name="basis" >
    <v>       8.46376883       0.00000000      -0.00000000 </v>
    <v>      -4.23188442       7.32983882       0.00000000 </v>
    <v>       0.00000000       0.00000000      34.55319157 </v>
   </varray>
   <i name="volume">   2143.61301901 </i>
   <varray name="rec_basis" >
    <v>       0.11815067       0.06821432      -0.00000000 </v>
    <v>      -0.00000000       0.13642865       0.00000000 </v>
    <v>       0.00000000       0.00000000       0.02894089 </v>
   </varray>
  </crystal>
  <varray name="positions" >
   <v>       0.11111111       0.22222222       0.33333333 </v>
   <v>       0.00000000       0.00000000       0.46666667 </v>
   <v>       0.22222222       0.11111111       0.40000000 </v>
   <v>       0.11111111       0.22222222       0.53333333 </v>
   <v>       0.32691722       0.00828012       0.66764489 </v>
   <v>       0.22222222       0.11111111       0.60000000 </v>
   <v>       0.11111111       0.55555556       0.33333333 </v>
   <v>       0.00000000       0.33333333       0.46666667 </v>
   <v>       0.22222222       0.44444444       0.40000000 </v>
   <v>       0.11111111       0.55555556       0.53333333 </v>
   <v>       0.33054511       0.32919500       0.66639985 </v>
   <v>       0.22222222       0.44444444       0.60000000 </v>
   <v>       0.11111111       0.88888889       0.33333333 </v>
   <v>       0.00000000       0.66666667       0.46666667 </v>
   <v>       0.22222222       0.77777778       0.40000000 </v>
   <v>       0.11111111       0.88888889       0.53333333 </v>
   <v>       0.34047471       0.65644642       0.66763001 </v>
   <v>       0.22222222       0.77777778       0.60000000 </v>
   <v>       0.44444444       0.22222222       0.33333333 </v>
   <v>       0.33333333       0.00000000       0.46666667 </v>
   <v>       0.55555556       0.11111111       0.40000000 </v>
   <v>       0.44444444       0.22222222       0.53333333 </v>
   <v>       0.68087517       0.00653950       0.66765677 </v>
   <v>       0.55555556       0.11111111       0.60000000 </v>
   <v>       0.44444444       0.55555556       0.33333333 </v>
   <v>       0.33333333       0.33333333       0.46666667 </v>
   <v>       0.55555556       0.44444444       0.40000000 </v>
   <v>       0.44444444       0.55555556       0.53333333 </v>
   <v>       0.65840668       0.32130800       0.66708789 </v>
   <v>       0.55555556       0.44444444       0.60000000 </v>
   <v>       0.44444444       0.88888889       0.33333333 </v>
   <v>       0.33333333       0.66666667       0.46666667 </v>
   <v>       0.55555556       0.77777778       0.40000000 </v>
   <v>       0.44444444       0.88888889       0.53333333 </v>
   <v>       0.66051740       0.67089434       0.66714771 </v>
   <v>       0.55555556       0.77777778       0.60000000 </v>
   <v>       0.77777778       0.22222222       0.33333333 </v>
   <v>       0.66666667       0.00000000       0.46666667 </v>
   <v>       0.88888889       0.11111111       0.40000000 </v>
   <v>       0.77777778       0.22222222       0.53333333 </v>
   <v>       0.00100418       0.00393919       0.66657389 </v>
   <v>       0.88888889       0.11111111       0.60000000 </v>
   <v>       0.77777778       0.55555556       0.33333333 </v>
   <v>       0.66666667       0.33333333       0.46666667 </v>
   <v>       0.88888889       0.44444444       0.40000000 </v>
   <v>       0.77777778       0.55555556       0.53333333 </v>
   <v>       0.99309266       0.31798503       0.66759053 </v>
   <v>       0.88888889       0.44444444       0.60000000 </v>
   <v>       0.77777778       0.88888889       0.33333333 </v>
   <v>       0.66666667       0.66666667       0.46666667 </v>
   <v>       0.88888889       0.77777778       0.40000000 </v>
   <v>       0.77777778       0.88888889       0.53333333 </v>
   <v>       0.00567074       0.68289688       0.66783708 </v>
   <v>       0.88888889       0.77777778       0.60000000 </v>
   <v>       0.44924173       0.89649324       0.69973221 </v>
   <v>       0.10772827       0.54605460       0.69998574 </v>
   <v>       0.76883682       0.55228431       0.70067235 </v>
  </varray>
  <varray name="selective"  type="logical" >
   <v type="logical" >  F  F  F </v>
   <v type="logical" >  F  F  F </v>
   <v type="logical" >  F  F  F </v>
   <v type="logical" >  F  F  F </v>
   <v type="logical" >  T  T  T </v>
   <v type="logical" >  F  F  F </v>
   <v type="logical" >  F  F  F </v>
   <v type="logical" >  F  F  F </v>
   <v type="logical" >  F  F  F </v>
   <v type="logical" >  F  F  F </v>
   <v type="logical" >  T  T  T </v>
   <v type="logical" >  F  F  F </v>
   <v type="logical" >  F  F  F </v>
   <v type="logical" >  F  F  F </v>
   <v type="logical" >  F  F  F </v>
   <v type="logical" >  F  F  F </v>
   <v type="logical" >  T  T  T </v>
   <v type="logical" >  F  F  F </v>
   <v type="logical" >  F  F  F </v>
   <v type="logical" >  F  F  F </v>
   <v type="logical" >  F  F  F </v>
   <v type="logical" >  F  F  F </v>
   <v type="logical" >  T  T  T </v>
   <v type="logical" >  F  F  F </v>
   <v type="logical" >  F  F  F </v>
   <v type="logical" >  F  F  F </v>
   <v type="logical" >  F  F  F </v>
   <v type="logical" >  F  F  F </v>
   <v type="logical" >  T  T  T </v>
   <v type="logical" >  F  F  F </v>
   <v type="logical" >  F  F  F </v>
   <v type="logical" >  F  F  F </v>
   <v type="logical" >  F  F  F </v>
   <v type="logical" >  F  F  F </v>
   <v type="logical" >  T  T  T </v>
   <v type="logical" >  F  F  F </v>
   <v type="logical" >  F  F  F </v>
   <v type="logical" >  F  F  F </v>
   <v type="logical" >  F  F  F </v>
   <v type="logical" >  F  F  F </v>
   <v type="logical" >  T  T  T </v>
   <v type="logical" >  F  F  F </v>
   <v type="logical" >  F  F  F </v>
   <v type="logical" >  F  F  F </v>
   <v type="logical" >  F  F  F </v>
   <v type="logical" >  F  F  F </v>
   <v type="logical" >  T  T  T </v>
   <v type="logical" >  F  F  F </v>
   <v type="logical" >  F  F  F </v>
   <v type="logical" >  F  F  F </v>
   <v type="logical" >  F  F  F </v>
   <v type="logical" >  F  F  F </v>
   <v type="logical" >  T  T  T </v>
   <v type="logical" >  F  F  F </v>
   <v type="logical" >  T  T  T </v>
   <v type="logical" >  T  T  T </v>
   <v type="logical" >  T  T  T </v>
  </varray>
  <nose>
   <v>      -3.00000000       0.00000000       0.00010000       0.00010000 </v>
  </nose>
 </structure>
</modeling>
