<?xml version="1.0" encoding="ISO-8859-1"?>
<modeling>
 <generator>
  <i name="program" type="string">vasp </i>
  <i name="version" type="string">6.1.2  </i>
  <i name="subversion" type="string">22Jul20 (build Nov  4 2022 18:23:20) complex                          parallel </i>
  <i name="platform" type="string">LinuxPGI </i>
  <i name="date" type="string">2024 01 30 </i>
  <i name="time" type="string">23:46:56 </i>
 </generator>
 <incar>
  <i type="int" name="IBRION">    -1</i>
  <i name="EDIFFG">     -0.03000000</i>
  <i type="int" name="NSW">     0</i>
  <i type="int" name="ISIF">     0</i>
  <i type="int" name="ISYM">     0</i>
  <i name="SYMPREC">      0.00000000</i>
  <i name="ENCUT">    350.00000000</i>
  <i type="string" name="LREAL"> Auto</i>
  <i type="logical" name="LWAVE"> F  </i>
  <i type="int" name="NCORE">     4</i>
  <i type="logical" name="LAECHG"> T  </i>
  <i type="string" name="GGA"> RP</i>
 </incar>
 <structure name="primitive_cell" >
  <crystal>
   <varray name="basis" >
    <v>       8.46376883       0.00000000      -0.00000000 </v>
    <v>      -4.23188442       7.32983882       0.00000000 </v>
    <v>       0.00000000       0.00000000      34.55319157 </v>
   </varray>
   <i name="volume">   2143.61301901 </i>
   <varray name="rec_basis" >
    <v>       0.11815067       0.06821432      -0.00000000 </v>
    <v>      -0.00000000       0.13642865       0.00000000 </v>
    <v>       0.00000000       0.00000000       0.02894089 </v>
   </varray>
  </crystal>
  <varray name="positions" >
   <v>       0.11111111       0.22222222       0.33333333 </v>
   <v>       0.00000000       0.00000000       0.46666667 </v>
   <v>       0.22222222       0.11111111       0.40000000 </v>
   <v>       0.11111111       0.22222222       0.53333333 </v>
   <v>       0.32827641       0.00673235       0.66652147 </v>
   <v>       0.22222222       0.11111111       0.60000000 </v>
   <v>       0.11111111       0.55555556       0.33333333 </v>
   <v>       0.00000000       0.33333333       0.46666667 </v>
   <v>       0.22222222       0.44444444       0.40000000 </v>
   <v>       0.11111111       0.55555556       0.53333333 </v>
   <v>       0.34416278       0.33724159       0.66666338 </v>
   <v>       0.22222222       0.44444444       0.60000000 </v>
   <v>       0.11111111       0.88888889       0.33333333 </v>
   <v>       0.00000000       0.66666667       0.46666667 </v>
   <v>       0.22222222       0.77777778       0.40000000 </v>
   <v>       0.11111111       0.88888889       0.53333333 </v>
   <v>       0.33956178       0.65876134       0.66670522 </v>
   <v>       0.22222222       0.77777778       0.60000000 </v>
   <v>       0.44444444       0.22222222       0.33333333 </v>
   <v>       0.33333333       0.00000000       0.46666667 </v>
   <v>       0.55555556       0.11111111       0.40000000 </v>
   <v>       0.44444444       0.22222222       0.53333333 </v>
   <v>       0.67186448       0.01441979       0.66701751 </v>
   <v>       0.55555556       0.11111111       0.60000000 </v>
   <v>       0.44444444       0.55555556       0.33333333 </v>
   <v>       0.33333333       0.33333333       0.46666667 </v>
   <v>       0.55555556       0.44444444       0.40000000 </v>
   <v>       0.44444444       0.55555556       0.53333333 </v>
   <v>       0.65876533       0.32124992       0.66651821 </v>
   <v>       0.55555556       0.44444444       0.60000000 </v>
   <v>       0.44444444       0.88888889       0.33333333 </v>
   <v>       0.33333333       0.66666667       0.46666667 </v>
   <v>       0.55555556       0.77777778       0.40000000 </v>
   <v>       0.44444444       0.88888889       0.53333333 </v>
   <v>       0.65128425       0.65725466       0.66680075 </v>
   <v>       0.55555556       0.77777778       0.60000000 </v>
   <v>       0.77777778       0.22222222       0.33333333 </v>
   <v>       0.66666667       0.00000000       0.46666667 </v>
   <v>       0.88888889       0.11111111       0.40000000 </v>
   <v>       0.77777778       0.22222222       0.53333333 </v>
   <v>       0.00793431       0.99363033       0.66695565 </v>
   <v>       0.88888889       0.11111111       0.60000000 </v>
   <v>       0.77777778       0.55555556       0.33333333 </v>
   <v>       0.66666667       0.33333333       0.46666667 </v>
   <v>       0.88888889       0.44444444       0.40000000 </v>
   <v>       0.77777778       0.55555556       0.53333333 </v>
   <v>       0.98488388       0.32604080       0.66673184 </v>
   <v>       0.88888889       0.44444444       0.60000000 </v>
   <v>       0.77777778       0.88888889       0.33333333 </v>
   <v>       0.66666667       0.66666667       0.46666667 </v>
   <v>       0.88888889       0.77777778       0.40000000 </v>
   <v>       0.77777778       0.88888889       0.53333333 </v>
   <v>       0.00687748       0.68055447       0.66682542 </v>
   <v>       0.88888889       0.77777778       0.60000000 </v>
   <v>       0.44066701       0.89418191       0.70052796 </v>
   <v>       0.11078974       0.55510236       0.70012150 </v>
   <v>       0.77084794       0.54589142       0.70052758 </v>
   <v>       0.11910828       0.22471534       0.70057606 </v>
   <v>       0.77685997       0.88797251       0.69967082 </v>
  </varray>
 </structure>
 <varray name="primitive_index" >
  <v type="int" >        1 </v>
  <v type="int" >        2 </v>
  <v type="int" >        3 </v>
  <v type="int" >        4 </v>
  <v type="int" >        5 </v>
  <v type="int" >        6 </v>
  <v type="int" >        7 </v>
  <v type="int" >        8 </v>
  <v type="int" >        9 </v>
  <v type="int" >       10 </v>
  <v type="int" >       11 </v>
  <v type="int" >       12 </v>
  <v type="int" >       13 </v>
  <v type="int" >       14 </v>
  <v type="int" >       15 </v>
  <v type="int" >       16 </v>
  <v type="int" >       17 </v>
  <v type="int" >       18 </v>
  <v type="int" >       19 </v>
  <v type="int" >       20 </v>
  <v type="int" >       21 </v>
  <v type="int" >       22 </v>
  <v type="int" >       23 </v>
  <v type="int" >       24 </v>
  <v type="int" >       25 </v>
  <v type="int" >       26 </v>
  <v type="int" >       27 </v>
  <v type="int" >       28 </v>
  <v type="int" >       29 </v>
  <v type="int" >       30 </v>
  <v type="int" >       31 </v>
  <v type="int" >       32 </v>
  <v type="int" >       33 </v>
  <v type="int" >       34 </v>
  <v type="int" >       35 </v>
  <v type="int" >       36 </v>
  <v type="int" >       37 </v>
  <v type="int" >       38 </v>
  <v type="int" >       39 </v>
  <v type="int" >       40 </v>
  <v type="int" >       41 </v>
  <v type="int" >       42 </v>
  <v type="int" >       43 </v>
  <v type="int" >       44 </v>
  <v type="int" >       45 </v>
  <v type="int" >       46 </v>
  <v type="int" >       47 </v>
  <v type="int" >       48 </v>
  <v type="int" >       49 </v>
  <v type="int" >       50 </v>
  <v type="int" >       51 </v>
  <v type="int" >       52 </v>
  <v type="int" >       53 </v>
  <v type="int" >       54 </v>
  <v type="int" >       55 </v>
  <v type="int" >       56 </v>
  <v type="int" >       57 </v>
  <v type="int" >       58 </v>
  <v type="int" >       59 </v>
 </varray>
 <kpoints>
  <generation param="Monkhorst-Pack">
   <v type="int" name="divisions">       5        5        1 </v>
   <v name="usershift">      0.00000000       0.00000000       0.00000000 </v>
   <v name="genvec1">      0.20000000       0.00000000       0.00000000 </v>
   <v name="genvec2">      0.00000000       0.20000000       0.00000000 </v>
   <v name="genvec3">      0.00000000       0.00000000       1.00000000 </v>
   <v name="shift">      0.00000000       0.00000000       0.00000000 </v>
  </generation>
  <varray name="kpointlist" >
   <v>       0.00000000       0.00000000       0.00000000 </v>
   <v>       0.20000000       0.00000000       0.00000000 </v>
   <v>       0.20000000      -0.20000000       0.00000000 </v>
   <v>       0.00000000      -0.20000000       0.00000000 </v>
   <v>       0.40000000       0.00000000       0.00000000 </v>
   <v>       0.40000000      -0.40000000       0.00000000 </v>
   <v>       0.00000000      -0.40000000       0.00000000 </v>
   <v>       0.20000000       0.20000000       0.00000000 </v>
   <v>       0.40000000      -0.20000000       0.00000000 </v>
   <v>       0.20000000      -0.40000000       0.00000000 </v>
   <v>       0.40000000       0.20000000       0.00000000 </v>
   <v>      -0.40000000      -0.40000000       0.00000000 </v>
   <v>       0.20000000       0.40000000       0.00000000 </v>
  </varray>
  <varray name="weights" >
   <v>       0.04000000 </v>
   <v>       0.08000000 </v>
   <v>       0.08000000 </v>
   <v>       0.08000000 </v>
   <v>       0.08000000 </v>
   <v>       0.08000000 </v>
   <v>       0.08000000 </v>
   <v>       0.08000000 </v>
   <v>       0.08000000 </v>
   <v>       0.08000000 </v>
   <v>       0.08000000 </v>
   <v>       0.08000000 </v>
   <v>       0.08000000 </v>
  </varray>
 </kpoints>
 <parameters>
  <separator name="general" >
   <i type="string" name="SYSTEM">unknown system</i>
   <i type="logical" name="LCOMPAT"> F  </i>
  </separator>
  <separator name="electronic" >
   <i type="string" name="PREC">normal</i>
   <i name="ENMAX">    350.00000000</i>
   <i name="ENAUG">    605.39200000</i>
   <i name="EDIFF">      0.00010000</i>
   <i type="int" name="IALGO">    38</i>
   <i type="int" name="IWAVPR">    10</i>
   <i type="int" name="NBANDS">   342</i>
   <i type="int" name="NBANDSLOW">    -1</i>
   <i type="int" name="NBANDSHIGH">    -1</i>
   <i name="NELECT">    570.00000000</i>
   <i type="int" name="TURBO">     0</i>
   <i type="int" name="IRESTART">     0</i>
   <i type="int" name="NREBOOT">     0</i>
   <i type="int" name="NMIN">     0</i>
   <i name="EREF">      0.00000000</i>
   <separator name="electronic smearing" >
    <i type="int" name="ISMEAR">     1</i>
    <i name="SIGMA">      0.20000000</i>
    <i name="KSPACING">      0.50000000</i>
    <i type="logical" name="KGAMMA"> T  </i>
    <i type="logical" name="KBLOWUP"> T  </i>
   </separator>
   <separator name="electronic projectors" >
    <i type="logical" name="LREAL"> T  </i>
    <v name="ROPT">     -0.00050000     -0.00050000</v>
    <i type="int" name="LMAXPAW">  -100</i>
    <i type="int" name="LMAXMIX">     2</i>
    <i type="logical" name="NLSPLINE"> F  </i>
   </separator>
   <separator name="electronic startup" >
    <i type="int" name="ISTART">     0</i>
    <i type="int" name="ICHARG">     2</i>
    <i type="int" name="INIWAV">     1</i>
   </separator>
   <separator name="electronic spin" >
    <i type="int" name="ISPIN">     1</i>
    <i type="logical" name="LNONCOLLINEAR"> F  </i>
    <v name="MAGMOM">      1.00000000      1.00000000      1.00000000      1.00000000      1.00000000      1.00000000      1.00000000      1.00000000      1.00000000      1.00000000      1.00000000      1.00000000      1.00000000      1.00000000      1.00000000      1.00000000      1.00000000      1.00000000      1.00000000      1.00000000
      1.00000000      1.00000000      1.00000000      1.00000000      1.00000000      1.00000000      1.00000000      1.00000000      1.00000000      1.00000000      1.00000000      1.00000000      1.00000000      1.00000000      1.00000000      1.00000000      1.00000000      1.00000000      1.00000000      1.00000000
      1.00000000      1.00000000      1.00000000      1.00000000      1.00000000      1.00000000      1.00000000      1.00000000      1.00000000      1.00000000      1.00000000      1.00000000      1.00000000      1.00000000      1.00000000      1.00000000      1.00000000      1.00000000      1.00000000</v>
    <i name="NUPDOWN">     -1.00000000</i>
    <i type="logical" name="LSORBIT"> F  </i>
    <v name="SAXIS">      0.00000000      0.00000000      1.00000000</v>
    <i type="logical" name="LSPIRAL"> F  </i>
    <v name="QSPIRAL">      0.00000000      0.00000000      0.00000000</v>
    <i type="logical" name="LZEROZ"> F  </i>
   </separator>
   <separator name="electronic exchange-correlation" >
    <i type="logical" name="LASPH"> F  </i>
    <i type="logical" name="LMETAGGA"> F  </i>
   </separator>
   <separator name="electronic convergence" >
    <i type="int" name="NELM">    60</i>
    <i type="int" name="NELMDL">     0</i>
    <i type="int" name="NELMIN">     2</i>
    <i name="ENINI">    350.00000000</i>
    <separator name="electronic convergence detail" >
     <i type="logical" name="LDIAG"> T  </i>
     <i type="logical" name="LSUBROT"> F  </i>
     <i name="WEIMIN">      0.00000000</i>
     <i name="EBREAK">      0.00000007</i>
     <i name="DEPER">      0.30000000</i>
     <i type="int" name="NRMM">     4</i>
     <i name="TIME">      0.40000000</i>
    </separator>
   </separator>
   <separator name="electronic mixer" >
    <i name="AMIX">      0.40000000</i>
    <i name="BMIX">      1.00000000</i>
    <i name="AMIN">      0.10000000</i>
    <i name="AMIX_MAG">      1.60000000</i>
    <i name="BMIX_MAG">      1.00000000</i>
    <separator name="electronic mixer details" >
     <i type="int" name="IMIX">     4</i>
     <i type="logical" name="MIXFIRST"> F  </i>
     <i type="int" name="MAXMIX">   -45</i>
     <i name="WC">    100.00000000</i>
     <i type="int" name="INIMIX">     1</i>
     <i type="int" name="MIXPRE">     1</i>
     <i type="int" name="MREMOVE">     5</i>
    </separator>
   </separator>
   <separator name="electronic dipolcorrection" >
    <i type="logical" name="LDIPOL"> F  </i>
    <i type="logical" name="LMONO"> F  </i>
    <i type="int" name="IDIPOL">     0</i>
    <i name="EPSILON">      1.00000000</i>
    <v name="DIPOL">   -100.00000000   -100.00000000   -100.00000000</v>
    <i name="EFIELD">      0.00000000</i>
   </separator>
  </separator>
  <separator name="grids" >
   <i type="int" name="NGX">    40</i>
   <i type="int" name="NGY">    40</i>
   <i type="int" name="NGZ">   160</i>
   <i type="int" name="NGXF">    80</i>
   <i type="int" name="NGYF">    80</i>
   <i type="int" name="NGZF">   320</i>
   <i type="logical" name="ADDGRID"> F  </i>
  </separator>
  <separator name="ionic" >
   <i type="int" name="NSW">     0</i>
   <i type="int" name="IBRION">    -1</i>
   <i type="int" name="MDALGO">     0</i>
   <i type="int" name="ISIF">     0</i>
   <i name="PSTRESS">      0.00000000</i>
   <i name="EDIFFG">     -0.03000000</i>
   <i type="int" name="NFREE">     0</i>
   <i name="POTIM">      0.50000000</i>
   <i name="SMASS">     -3.00000000</i>
   <i name="SCALEE">      1.00000000</i>
  </separator>
  <separator name="ionic md" >
   <i name="TEBEG">      0.00010000</i>
   <i name="TEEND">      0.00010000</i>
   <i type="int" name="NBLOCK">     1</i>
   <i type="int" name="KBLOCK">     1</i>
   <i type="int" name="NPACO">   256</i>
   <i name="APACO">     16.00000000</i>
  </separator>
  <separator name="symmetry" >
   <i type="int" name="ISYM">     0</i>
   <i name="SYMPREC">      0.00000000</i>
  </separator>
  <separator name="dos" >
   <i type="int" name="LORBIT">     0</i>
   <v name="RWIGS">     -1.00000000     -1.00000000</v>
   <i type="int" name="NEDOS">   301</i>
   <i name="EMIN">     10.00000000</i>
   <i name="EMAX">    -10.00000000</i>
   <i name="EFERMI">      0.00000000</i>
  </separator>
  <separator name="writing" >
   <i type="int" name="NWRITE">     2</i>
   <i type="logical" name="LWAVE"> F  </i>
   <i type="logical" name="LDOWNSAMPLE"> F  </i>
   <i type="logical" name="LCHARG"> T  </i>
   <i type="logical" name="LPARD"> F  </i>
   <i type="logical" name="LVTOT"> F  </i>
   <i type="logical" name="LVHAR"> F  </i>
   <i type="logical" name="LELF"> F  </i>
   <i type="logical" name="LOPTICS"> F  </i>
   <v name="STM">      0.00000000      0.00000000      0.00000000      0.00000000      0.00000000      0.00000000      0.00000000</v>
  </separator>
  <separator name="performance" >
   <i type="int" name="NPAR">     2</i>
   <i type="int" name="NSIM">     4</i>
   <i type="int" name="NBLK">    -1</i>
   <i type="logical" name="LPLANE"> T  </i>
   <i type="logical" name="LSCALAPACK"> T  </i>
   <i type="logical" name="LSCAAWARE"> F  </i>
   <i type="logical" name="LSCALU"> F  </i>
   <i type="logical" name="LASYNC"> F  </i>
   <i type="logical" name="LORBITALREAL"> F  </i>
  </separator>
  <separator name="miscellaneous" >
   <i type="int" name="IDIOT">     3</i>
   <i type="int" name="PHON_NSTRUCT">    -1</i>
   <i type="logical" name="LMUSIC"> F  </i>
   <v name="POMASS">    195.08000000     16.00000000</v>
   <v name="DARWINR">      0.00000000      0.00000000</v>
   <v name="DARWINV">      1.00000000      1.00000000</v>
   <i type="logical" name="LCORR"> T  </i>
  </separator>
  <i type="logical" name="GGA_COMPAT"> T  </i>
  <i type="logical" name="LBERRY"> F  </i>
  <i type="int" name="ICORELEVEL">     0</i>
  <i type="logical" name="LDAU"> F  </i>
  <i type="int" name="I_CONSTRAINED_M">     0</i>
  <separator name="electronic exchange-correlation" >
   <i type="string" name="GGA">RP</i>
   <i type="int" name="VOSKOWN">     0</i>
   <i type="logical" name="LHFCALC"> F  </i>
   <i type="string" name="PRECFOCK"></i>
   <i type="logical" name="LSYMGRAD"> F  </i>
   <i type="logical" name="LHFONE"> F  </i>
   <i type="logical" name="LRHFCALC"> F  </i>
   <i type="logical" name="LTHOMAS"> F  </i>
   <i type="logical" name="LMODELHF"> F  </i>
   <i type="logical" name="LFOCKACE"> F  </i>
   <i name="ENCUT4O">     -1.00000000</i>
   <i type="int" name="EXXOEP">     0</i>
   <i type="int" name="FOURORBIT">     0</i>
   <i name="AEXX">      0.00000000</i>
   <i name="HFALPHA">      0.00000000</i>
   <i name="MCALPHA">      0.00000000</i>
   <i name="ALDAX">      1.00000000</i>
   <i name="AGGAX">      1.00000000</i>
   <i name="ALDAC">      1.00000000</i>
   <i name="AGGAC">      1.00000000</i>
   <i type="int" name="NKREDX">     1</i>
   <i type="int" name="NKREDY">     1</i>
   <i type="int" name="NKREDZ">     1</i>
   <i type="logical" name="SHIFTRED"> F  </i>
   <i type="logical" name="ODDONLY"> F  </i>
   <i type="logical" name="EVENONLY"> F  </i>
   <i type="int" name="LMAXFOCK">     0</i>
   <i type="int" name="NMAXFOCKAE">     0</i>
   <i type="logical" name="LFOCKAEDFT"> F  </i>
   <i name="HFSCREEN">      0.00000000</i>
   <i name="HFSCREENC">      0.00000000</i>
   <i type="int" name="NBANDSGWLOW">     0</i>
  </separator>
  <separator name="vdW DFT" >
   <i type="logical" name="LUSE_VDW"> F  </i>
   <i name="Zab_VDW">     -0.84910000</i>
   <i name="PARAM1">      0.12340000</i>
   <i name="PARAM2">      1.00000000</i>
   <i name="PARAM3">      0.00000000</i>
  </separator>
  <separator name="model GW" >
   <i type="int" name="MODEL_GW">     0</i>
   <i name="MODEL_EPS0">     21.79945443</i>
   <i name="MODEL_ALPHA">      1.00000000</i>
  </separator>
  <separator name="linear response parameters" >
   <i type="logical" name="LEPSILON"> F  </i>
   <i type="logical" name="LRPA"> F  </i>
   <i type="logical" name="LNABLA"> F  </i>
   <i type="logical" name="LVEL"> F  </i>
   <i type="int" name="KINTER">     0</i>
   <i name="CSHIFT">      0.10000000</i>
   <i name="OMEGAMAX">     -1.00000000</i>
   <i name="DEG_THRESHOLD">      0.00200000</i>
   <i name="RTIME">     -0.10000000</i>
   <i name="WPLASMAI">      0.00000000</i>
   <v name="DFIELD">      0.00000000      0.00000000      0.00000000</v>
   <v name="WPLASMA">      0.00000000      0.00000000      0.00000000      0.00000000      0.00000000      0.00000000      0.00000000      0.00000000      0.00000000</v>
  </separator>
  <separator name="orbital magnetization" >
   <i type="logical" name="NUCIND"> F  </i>
   <v name="MAGPOS">      0.00000000      0.00000000      0.00000000</v>
   <i type="logical" name="LNICSALL"> T  </i>
   <i type="logical" name="ORBITALMAG"> F  </i>
   <i type="logical" name="LMAGBLOCH"> F  </i>
   <i type="logical" name="LCHIMAG"> F  </i>
   <i type="logical" name="LGAUGE"> T  </i>
   <i type="int" name="MAGATOM">     0</i>
   <v name="MAGDIPOL">      0.00000000      0.00000000      0.00000000</v>
   <v name="AVECCONST">      0.00000000      0.00000000      0.00000000</v>
  </separator>
  <separator name="response functions" >
   <i type="logical" name="LFINITE_TEMPERATURE"> F  </i>
   <i type="logical" name="LADDER"> F  </i>
   <i type="logical" name="LRPAFORCE"> F  </i>
   <i type="logical" name="LFXC"> F  </i>
   <i type="logical" name="LHARTREE"> T  </i>
   <i type="int" name="IBSE">     0</i>
   <v type="int" name="KPOINT">    -1     0     0     0</v>
   <i type="logical" name="LTCTC"> F  </i>
   <i type="logical" name="LTCTE"> F  </i>
   <i type="logical" name="LTETE"> F  </i>
   <i type="logical" name="LTRIPLET"> F  </i>
   <i type="logical" name="LFXCEPS"> F  </i>
   <i type="logical" name="LFXHEG"> F  </i>
   <i type="int" name="NATURALO">     2</i>
   <i type="logical" name="LHOLEGF"> F  </i>
   <i type="logical" name="L2ORDER"> F  </i>
   <i type="logical" name="LDMP1"> F  </i>
   <i type="logical" name="LMP2LT"> F  </i>
   <i type="logical" name="LSMP2LT"> F  </i>
   <i type="logical" name="LGWLF"> F  </i>
   <i name="ENCUTGW">     -2.00000000</i>
   <i name="ENCUTGWSOFT">     -2.00000000</i>
   <i name="ENCUTLF">     -1.00000000</i>
   <i type="logical" name="LESF_SPLINES"> F  </i>
   <i type="int" name="LMAXMP2">    -1</i>
   <i name="SCISSOR">      0.00000000</i>
   <i type="int" name="NOMEGA">     0</i>
   <i type="int" name="NOMEGAR">     0</i>
   <i type="int" name="NBANDSGW">    -1</i>
   <i type="int" name="NBANDSO">    -1</i>
   <i type="int" name="NBANDSV">    -1</i>
   <i type="int" name="NELM">     1</i>
   <i type="int" name="NELMHF">     1</i>
   <i type="int" name="DIM">     3</i>
   <i type="int" name="IESPILON">     4</i>
   <i type="int" name="ANTIRES">     0</i>
   <i name="OMEGAMAX">    -30.00000000</i>
   <i name="OMEGAMIN">    -30.00000000</i>
   <i name="OMEGATL">   -200.00000000</i>
   <i type="int" name="OMEGAGRID">     0</i>
   <i name="CSHIFT">     -0.10000000</i>
   <i type="logical" name="LSELFENERGY"> F  </i>
   <i type="logical" name="LSPECTRAL"> F  </i>
   <i type="logical" name="LSPECTRALGW"> F  </i>
   <i type="logical" name="LSINGLES"> F  </i>
   <i type="logical" name="LFERMIGW"> F  </i>
   <i type="logical" name="ODDONLYGW"> F  </i>
   <i type="logical" name="EVENONLYGW"> F  </i>
   <i type="int" name="NKREDLFX">     1</i>
   <i type="int" name="NKREDLFY">     1</i>
   <i type="int" name="NKREDLFZ">     1</i>
   <i type="int" name="MAXMEM">  2800</i>
   <i type="int" name="TELESCOPE">     0</i>
   <i type="int" name="NTAUPAR">    -1</i>
   <i type="int" name="NOMEGAPAR">    -1</i>
   <i name="LAMBDA">      1.00000000</i>
  </separator>
  <separator name="External order field" >
   <i name="OFIELD_KAPPA">      0.00000000</i>
   <v name="OFIELD_K">      0.00000000      0.00000000      0.00000000</v>
   <i name="OFIELD_Q6_NEAR">      0.00000000</i>
   <i name="OFIELD_Q6_FAR">      0.00000000</i>
   <i name="OFIELD_A">      0.00000000</i>
  </separator>
 </parameters>
 <atominfo>
  <atoms>      59 </atoms>
  <types>       2 </types>
  <array name="atoms" >
   <dimension dim="1">ion</dimension>
   <field type="string">element</field>
   <field type="int">atomtype</field>
   <set>
    <rc><c>Pt</c><c>   1</c></rc>
    <rc><c>Pt</c><c>   1</c></rc>
    <rc><c>Pt</c><c>   1</c></rc>
    <rc><c>Pt</c><c>   1</c></rc>
    <rc><c>Pt</c><c>   1</c></rc>
    <rc><c>Pt</c><c>   1</c></rc>
    <rc><c>Pt</c><c>   1</c></rc>
    <rc><c>Pt</c><c>   1</c></rc>
    <rc><c>Pt</c><c>   1</c></rc>
    <rc><c>Pt</c><c>   1</c></rc>
    <rc><c>Pt</c><c>   1</c></rc>
    <rc><c>Pt</c><c>   1</c></rc>
    <rc><c>Pt</c><c>   1</c></rc>
    <rc><c>Pt</c><c>   1</c></rc>
    <rc><c>Pt</c><c>   1</c></rc>
    <rc><c>Pt</c><c>   1</c></rc>
    <rc><c>Pt</c><c>   1</c></rc>
    <rc><c>Pt</c><c>   1</c></rc>
    <rc><c>Pt</c><c>   1</c></rc>
    <rc><c>Pt</c><c>   1</c></rc>
    <rc><c>Pt</c><c>   1</c></rc>
    <rc><c>Pt</c><c>   1</c></rc>
    <rc><c>Pt</c><c>   1</c></rc>
    <rc><c>Pt</c><c>   1</c></rc>
    <rc><c>Pt</c><c>   1</c></rc>
    <rc><c>Pt</c><c>   1</c></rc>
    <rc><c>Pt</c><c>   1</c></rc>
    <rc><c>Pt</c><c>   1</c></rc>
    <rc><c>Pt</c><c>   1</c></rc>
    <rc><c>Pt</c><c>   1</c></rc>
    <rc><c>Pt</c><c>   1</c></rc>
    <rc><c>Pt</c><c>   1</c></rc>
    <rc><c>Pt</c><c>   1</c></rc>
    <rc><c>Pt</c><c>   1</c></rc>
    <rc><c>Pt</c><c>   1</c></rc>
    <rc><c>Pt</c><c>   1</c></rc>
    <rc><c>Pt</c><c>   1</c></rc>
    <rc><c>Pt</c><c>   1</c></rc>
    <rc><c>Pt</c><c>   1</c></rc>
    <rc><c>Pt</c><c>   1</c></rc>
    <rc><c>Pt</c><c>   1</c></rc>
    <rc><c>Pt</c><c>   1</c></rc>
    <rc><c>Pt</c><c>   1</c></rc>
    <rc><c>Pt</c><c>   1</c></rc>
    <rc><c>Pt</c><c>   1</c></rc>
    <rc><c>Pt</c><c>   1</c></rc>
    <rc><c>Pt</c><c>   1</c></rc>
    <rc><c>Pt</c><c>   1</c></rc>
    <rc><c>Pt</c><c>   1</c></rc>
    <rc><c>Pt</c><c>   1</c></rc>
    <rc><c>Pt</c><c>   1</c></rc>
    <rc><c>Pt</c><c>   1</c></rc>
    <rc><c>Pt</c><c>   1</c></rc>
    <rc><c>Pt</c><c>   1</c></rc>
    <rc><c>O </c><c>   2</c></rc>
    <rc><c>O </c><c>   2</c></rc>
    <rc><c>O </c><c>   2</c></rc>
    <rc><c>O </c><c>   2</c></rc>
    <rc><c>O </c><c>   2</c></rc>
   </set>
  </array>
  <array name="atomtypes" >
   <dimension dim="1">type</dimension>
   <field type="int">atomspertype</field>
   <field type="string">element</field>
   <field>mass</field>
   <field>valence</field>
   <field type="string">pseudopotential</field>
   <set>
    <rc><c>  54</c><c>Pt</c><c>    195.08000000</c><c>     10.00000000</c><c>  PAW_PBE Pt 04Feb2005                  </c></rc>
    <rc><c>   5</c><c>O </c><c>     16.00000000</c><c>      6.00000000</c><c>  PAW_PBE O 08Apr2002                   </c></rc>
   </set>
  </array>
 </atominfo>
 <structure name="initialpos" >
  <crystal>
   <varray name="basis" >
    <v>       8.46376883       0.00000000      -0.00000000 </v>
    <v>      -4.23188442       7.32983882       0.00000000 </v>
    <v>       0.00000000       0.00000000      34.55319157 </v>
   </varray>
   <i name="volume">   2143.61301901 </i>
   <varray name="rec_basis" >
    <v>       0.11815067       0.06821432      -0.00000000 </v>
    <v>      -0.00000000       0.13642865       0.00000000 </v>
    <v>       0.00000000       0.00000000       0.02894089 </v>
   </varray>
  </crystal>
  <varray name="positions" >
   <v>       0.11111111       0.22222222       0.33333333 </v>
   <v>       0.00000000       0.00000000       0.46666667 </v>
   <v>       0.22222222       0.11111111       0.40000000 </v>
   <v>       0.11111111       0.22222222       0.53333333 </v>
   <v>       0.32827641       0.00673235       0.66652147 </v>
   <v>       0.22222222       0.11111111       0.60000000 </v>
   <v>       0.11111111       0.55555556       0.33333333 </v>
   <v>       0.00000000       0.33333333       0.46666667 </v>
   <v>       0.22222222       0.44444444       0.40000000 </v>
   <v>       0.11111111       0.55555556       0.53333333 </v>
   <v>       0.34416278       0.33724159       0.66666338 </v>
   <v>       0.22222222       0.44444444       0.60000000 </v>
   <v>       0.11111111       0.88888889       0.33333333 </v>
   <v>       0.00000000       0.66666667       0.46666667 </v>
   <v>       0.22222222       0.77777778       0.40000000 </v>
   <v>       0.11111111       0.88888889       0.53333333 </v>
   <v>       0.33956178       0.65876134       0.66670522 </v>
   <v>       0.22222222       0.77777778       0.60000000 </v>
   <v>       0.44444444       0.22222222       0.33333333 </v>
   <v>       0.33333333       0.00000000       0.46666667 </v>
   <v>       0.55555556       0.11111111       0.40000000 </v>
   <v>       0.44444444       0.22222222       0.53333333 </v>
   <v>       0.67186448       0.01441979       0.66701751 </v>
   <v>       0.55555556       0.11111111       0.60000000 </v>
   <v>       0.44444444       0.55555556       0.33333333 </v>
   <v>       0.33333333       0.33333333       0.46666667 </v>
   <v>       0.55555556       0.44444444       0.40000000 </v>
   <v>       0.44444444       0.55555556       0.53333333 </v>
   <v>       0.65876533       0.32124992       0.66651821 </v>
   <v>       0.55555556       0.44444444       0.60000000 </v>
   <v>       0.44444444       0.88888889       0.33333333 </v>
   <v>       0.33333333       0.66666667       0.46666667 </v>
   <v>       0.55555556       0.77777778       0.40000000 </v>
   <v>       0.44444444       0.88888889       0.53333333 </v>
   <v>       0.65128425       0.65725466       0.66680075 </v>
   <v>       0.55555556       0.77777778       0.60000000 </v>
   <v>       0.77777778       0.22222222       0.33333333 </v>
   <v>       0.66666667       0.00000000       0.46666667 </v>
   <v>       0.88888889       0.11111111       0.40000000 </v>
   <v>       0.77777778       0.22222222       0.53333333 </v>
   <v>       0.00793431       0.99363033       0.66695565 </v>
   <v>       0.88888889       0.11111111       0.60000000 </v>
   <v>       0.77777778       0.55555556       0.33333333 </v>
   <v>       0.66666667       0.33333333       0.46666667 </v>
   <v>       0.88888889       0.44444444       0.40000000 </v>
   <v>       0.77777778       0.55555556       0.53333333 </v>
   <v>       0.98488388       0.32604080       0.66673184 </v>
   <v>       0.88888889       0.44444444       0.60000000 </v>
   <v>       0.77777778       0.88888889       0.33333333 </v>
   <v>       0.66666667       0.66666667       0.46666667 </v>
   <v>       0.88888889       0.77777778       0.40000000 </v>
   <v>       0.77777778       0.88888889       0.53333333 </v>
   <v>       0.00687748       0.68055447       0.66682542 </v>
   <v>       0.88888889       0.77777778       0.60000000 </v>
   <v>       0.44066701       0.89418191       0.70052796 </v>
   <v>       0.11078974       0.55510236       0.70012150 </v>
   <v>       0.77084794       0.54589142       0.70052758 </v>
   <v>       0.11910828       0.22471534       0.70057606 </v>
   <v>       0.77685997       0.88797251       0.69967082 </v>
  </varray>
  <varray name="selective"  type="logical" >
   <v type="logical" >  F  F  F </v>
   <v type="logical" >  F  F  F </v>
   <v type="logical" >  F  F  F </v>
   <v type="logical" >  F  F  F </v>
   <v type="logical" >  T  T  T </v>
   <v type="logical" >  F  F  F </v>
   <v type="logical" >  F  F  F </v>
   <v type="logical" >  F  F  F </v>
   <v type="logical" >  F  F  F </v>
   <v type="logical" >  F  F  F </v>
   <v type="logical" >  T  T  T </v>
   <v type="logical" >  F  F  F </v>
   <v type="logical" >  F  F  F </v>
   <v type="logical" >  F  F  F </v>
   <v type="logical" >  F  F  F </v>
   <v type="logical" >  F  F  F </v>
   <v type="logical" >  T  T  T </v>
   <v type="logical" >  F  F  F </v>
   <v type="logical" >  F  F  F </v>
   <v type="logical" >  F  F  F </v>
   <v type="logical" >  F  F  F </v>
   <v type="logical" >  F  F  F </v>
   <v type="logical" >  T  T  T </v>
   <v type="logical" >  F  F  F </v>
   <v type="logical" >  F  F  F </v>
   <v type="logical" >  F  F  F </v>
   <v type="logical" >  F  F  F </v>
   <v type="logical" >  F  F  F </v>
   <v type="logical" >  T  T  T </v>
   <v type="logical" >  F  F  F </v>
   <v type="logical" >  F  F  F </v>
   <v type="logical" >  F  F  F </v>
   <v type="logical" >  F  F  F </v>
   <v type="logical" >  F  F  F </v>
   <v type="logical" >  T  T  T </v>
   <v type="logical" >  F  F  F </v>
   <v type="logical" >  F  F  F </v>
   <v type="logical" >  F  F  F </v>
   <v type="logical" >  F  F  F </v>
   <v type="logical" >  F  F  F </v>
   <v type="logical" >  T  T  T </v>
   <v type="logical" >  F  F  F </v>
   <v type="logical" >  F  F  F </v>
   <v type="logical" >  F  F  F </v>
   <v type="logical" >  F  F  F </v>
   <v type="logical" >  F  F  F </v>
   <v type="logical" >  T  T  T </v>
   <v type="logical" >  F  F  F </v>
   <v type="logical" >  F  F  F </v>
   <v type="logical" >  F  F  F </v>
   <v type="logical" >  F  F  F </v>
   <v type="logical" >  F  F  F </v>
   <v type="logical" >  T  T  T </v>
   <v type="logical" >  F  F  F </v>
   <v type="logical" >  T  T  T </v>
   <v type="logical" >  T  T  T </v>
   <v type="logical" >  T  T  T </v>
   <v type="logical" >  T  T  T </v>
   <v type="logical" >  T  T  T </v>
  </varray>
  <nose>
   <v>      -3.00000000       0.00000000       0.00010000       0.00010000 </v>
  </nose>
 </structure>
 <calculation>
  <scstep>
   <time name="dav">   56.17   56.22</time>
   <time name="total">   56.40   56.45</time>
   <energy>
    <i name="alphaZ">   1395.72618674 </i>
    <i name="ewald"> 422268.99463246 </i>
    <i name="hartreedc">-466202.89871187 </i>
    <i name="XCdc">    308.11357490 </i>
    <i name="pawpsdc">  39356.62200427 </i>
    <i name="pawaedc"> -37784.89564534 </i>
    <i name="eentropy">     -0.00298338 </i>
    <i name="bandstr">   2629.75150267 </i>
    <i name="atom">  41488.44361347 </i>
    <i name="e_fr_energy">   3459.85417392 </i>
    <i name="e_wo_entrp">   3459.85715729 </i>
    <i name="e_0_energy">   3459.85516838 </i>
   </energy>
  </scstep>
  <scstep>
   <time name="dav">   63.13   63.18</time>
   <time name="total">   63.14   63.19</time>
   <energy>
    <i name="e_fr_energy">    -54.42177551 </i>
    <i name="e_wo_entrp">    -54.43086305 </i>
    <i name="e_0_energy">    -54.42480469 </i>
   </energy>
  </scstep>
  <scstep>
   <time name="dav">   61.62   61.68</time>
   <time name="total">   61.63   61.68</time>
   <energy>
    <i name="e_fr_energy">   -324.99552096 </i>
    <i name="e_wo_entrp">   -324.91731999 </i>
    <i name="e_0_energy">   -324.96945397 </i>
   </energy>
  </scstep>
  <scstep>
   <time name="dav">   66.28   66.34</time>
   <time name="total">   66.29   66.34</time>
   <energy>
    <i name="e_fr_energy">   -337.92906752 </i>
    <i name="e_wo_entrp">   -337.84124551 </i>
    <i name="e_0_energy">   -337.89979352 </i>
   </energy>
  </scstep>
  <scstep>
   <time name="dav">   64.98   65.03</time>
   <time name="total">   68.32   68.38</time>
   <energy>
    <i name="e_fr_energy">   -338.27829658 </i>
    <i name="e_wo_entrp">   -338.19042583 </i>
    <i name="e_0_energy">   -338.24900633 </i>
   </energy>
  </scstep>
  <scstep>
   <time name="dav">   62.85   62.90</time>
   <time name="total">   66.43   66.49</time>
   <energy>
    <i name="e_fr_energy">   -431.76653391 </i>
    <i name="e_wo_entrp">   -431.74379792 </i>
    <i name="e_0_energy">   -431.75895525 </i>
   </energy>
  </scstep>
  <scstep>
   <time name="dav">   62.49   62.54</time>
   <time name="total">   66.00   66.05</time>
   <energy>
    <i name="e_fr_energy">   -321.89834134 </i>
    <i name="e_wo_entrp">   -321.76492446 </i>
    <i name="e_0_energy">   -321.85386904 </i>
   </energy>
  </scstep>
  <scstep>
   <time name="dav">   91.76   91.83</time>
   <time name="total">   95.31   95.39</time>
   <energy>
    <i name="e_fr_energy">   -426.69514690 </i>
    <i name="e_wo_entrp">   -426.81179201 </i>
    <i name="e_0_energy">   -426.73402860 </i>
   </energy>
  </scstep>
  <scstep>
   <time name="dav">   62.09   62.14</time>
   <time name="total">   65.58   65.63</time>
   <energy>
    <i name="e_fr_energy">   -361.07984672 </i>
    <i name="e_wo_entrp">   -361.12644437 </i>
    <i name="e_0_energy">   -361.09537927 </i>
   </energy>
  </scstep>
  <scstep>
   <time name="dav">   61.66   61.70</time>
   <time name="total">   65.26   65.31</time>
   <energy>
    <i name="e_fr_energy">   -326.84618503 </i>
    <i name="e_wo_entrp">   -326.73953105 </i>
    <i name="e_0_energy">   -326.81063370 </i>
   </energy>
  </scstep>
  <scstep>
   <time name="dav">   58.34   58.39</time>
   <time name="total">   61.83   61.88</time>
   <energy>
    <i name="e_fr_energy">   -320.39767175 </i>
    <i name="e_wo_entrp">   -320.28228659 </i>
    <i name="e_0_energy">   -320.35921003 </i>
   </energy>
  </scstep>
  <scstep>
   <time name="dav">   63.58   63.63</time>
   <time name="total">   67.02   67.08</time>
   <energy>
    <i name="e_fr_energy">   -316.91458990 </i>
    <i name="e_wo_entrp">   -316.94161559 </i>
    <i name="e_0_energy">   -316.92359847 </i>
   </energy>
  </scstep>
  <scstep>
   <time name="dav">   57.86   57.90</time>
   <time name="total">   61.39   61.44</time>
   <energy>
    <i name="e_fr_energy">   -313.26385360 </i>
    <i name="e_wo_entrp">   -313.17196208 </i>
    <i name="e_0_energy">   -313.23322309 </i>
   </energy>
  </scstep>
  <scstep>
   <time name="dav">   58.50   58.54</time>
   <time name="total">   62.08   62.12</time>
   <energy>
    <i name="e_fr_energy">   -313.94588072 </i>
    <i name="e_wo_entrp">   -313.88614774 </i>
    <i name="e_0_energy">   -313.92596973 </i>
   </energy>
  </scstep>
  <scstep>
   <time name="dav">   59.71   59.75</time>
   <time name="total">   63.34   63.39</time>
   <energy>
    <i name="e_fr_energy">   -312.50156188 </i>
    <i name="e_wo_entrp">   -312.39831663 </i>
    <i name="e_0_energy">   -312.46714680 </i>
   </energy>
  </scstep>
  <scstep>
   <time name="dav">   58.26   58.30</time>
   <time name="total">   61.84   61.90</time>
   <energy>
    <i name="e_fr_energy">   -312.96884268 </i>
    <i name="e_wo_entrp">   -312.92477729 </i>
    <i name="e_0_energy">   -312.95415421 </i>
   </energy>
  </scstep>
  <scstep>
   <time name="dav">   65.91   65.96</time>
   <time name="total">   69.47   69.52</time>
   <energy>
    <i name="e_fr_energy">   -312.12758414 </i>
    <i name="e_wo_entrp">   -312.03632109 </i>
    <i name="e_0_energy">   -312.09716313 </i>
   </energy>
  </scstep>
  <scstep>
   <time name="dav">   57.93   57.98</time>
   <time name="total">   61.55   61.60</time>
   <energy>
    <i name="e_fr_energy">   -312.21434381 </i>
    <i name="e_wo_entrp">   -312.11797779 </i>
    <i name="e_0_energy">   -312.18222180 </i>
   </energy>
  </scstep>
  <scstep>
   <time name="dav">   63.78   63.83</time>
   <time name="total">   67.38   67.43</time>
   <energy>
    <i name="e_fr_energy">   -312.03711580 </i>
    <i name="e_wo_entrp">   -311.93329251 </i>
    <i name="e_0_energy">   -312.00250804 </i>
   </energy>
  </scstep>
  <scstep>
   <time name="dav">   72.86   72.92</time>
   <time name="total">   76.34   76.40</time>
   <energy>
    <i name="e_fr_energy">   -311.86873244 </i>
    <i name="e_wo_entrp">   -311.75984042 </i>
    <i name="e_0_energy">   -311.83243510 </i>
   </energy>
  </scstep>
  <scstep>
   <time name="dav">   57.82   57.86</time>
   <time name="total">   61.35   61.41</time>
   <energy>
    <i name="e_fr_energy">   -311.84795968 </i>
    <i name="e_wo_entrp">   -311.74479372 </i>
    <i name="e_0_energy">   -311.81357102 </i>
   </energy>
  </scstep>
  <scstep>
   <time name="dav">   64.49   64.54</time>
   <time name="total">   68.15   68.21</time>
   <energy>
    <i name="e_fr_energy">   -311.83752881 </i>
    <i name="e_wo_entrp">   -311.73499009 </i>
    <i name="e_0_energy">   -311.80334924 </i>
   </energy>
  </scstep>
  <scstep>
   <time name="dav">   58.29   58.33</time>
   <time name="total">   61.79   61.83</time>
   <energy>
    <i name="e_fr_energy">   -311.84265210 </i>
    <i name="e_wo_entrp">   -311.74034381 </i>
    <i name="e_0_energy">   -311.80854934 </i>
   </energy>
  </scstep>
  <scstep>
   <time name="dav">   61.09   61.14</time>
   <time name="total">   64.64   64.69</time>
   <energy>
    <i name="e_fr_energy">   -311.83212692 </i>
    <i name="e_wo_entrp">   -311.72851099 </i>
    <i name="e_0_energy">   -311.79758828 </i>
   </energy>
  </scstep>
  <scstep>
   <time name="dav">   60.08   60.13</time>
   <time name="total">   63.59   63.65</time>
   <energy>
    <i name="e_fr_energy">   -311.81734840 </i>
    <i name="e_wo_entrp">   -311.71071304 </i>
    <i name="e_0_energy">   -311.78180328 </i>
   </energy>
  </scstep>
  <scstep>
   <time name="dav">   62.00   62.05</time>
   <time name="total">   65.45   65.50</time>
   <energy>
    <i name="e_fr_energy">   -311.81105114 </i>
    <i name="e_wo_entrp">   -311.70109556 </i>
    <i name="e_0_energy">   -311.77439928 </i>
   </energy>
  </scstep>
  <scstep>
   <time name="dav">   57.51   57.56</time>
   <time name="total">   61.05   61.10</time>
   <energy>
    <i name="e_fr_energy">   -311.81098740 </i>
    <i name="e_wo_entrp">   -311.70093904 </i>
    <i name="e_0_energy">   -311.77430461 </i>
   </energy>
  </scstep>
  <scstep>
   <time name="dav">   50.32   50.36</time>
   <time name="total">   53.88   53.92</time>
   <energy>
    <i name="e_fr_energy">   -311.81077570 </i>
    <i name="e_wo_entrp">   -311.70086455 </i>
    <i name="e_0_energy">   -311.77413865 </i>
   </energy>
  </scstep>
  <scstep>
   <time name="dav">   57.31   57.36</time>
   <time name="total">   60.97   61.11</time>
   <energy>
    <i name="e_fr_energy">   -311.80987180 </i>
    <i name="e_wo_entrp">   -311.69912119 </i>
    <i name="e_0_energy">   -311.77295493 </i>
   </energy>
  </scstep>
  <scstep>
   <time name="dav">   45.41   45.45</time>
   <time name="total">   45.61   45.66</time>
   <energy>
    <i name="alphaZ">   1395.72618674 </i>
    <i name="ewald"> 422268.99463246 </i>
    <i name="hartreedc">-465615.69637830 </i>
    <i name="XCdc">    294.15286073 </i>
    <i name="pawpsdc">  51079.24097023 </i>
    <i name="pawaedc"> -49657.32979418 </i>
    <i name="eentropy">     -0.11102605 </i>
    <i name="bandstr">  -1565.23092659 </i>
    <i name="atom">  41488.44361347 </i>
    <i name="e_fr_energy">   -311.80986151 </i>
    <i name="e_wo_entrp">   -311.69883546 </i>
    <i name="e_0_energy">   -311.77285282 </i>
   </energy>
  </scstep>
  <structure>
   <crystal>
    <varray name="basis" >
     <v>       8.46376883       0.00000000      -0.00000000 </v>
     <v>      -4.23188442       7.32983882       0.00000000 </v>
     <v>       0.00000000       0.00000000      34.55319157 </v>
    </varray>
    <i name="volume">   2143.61301901 </i>
    <varray name="rec_basis" >
     <v>       0.11815067       0.06821432      -0.00000000 </v>
     <v>      -0.00000000       0.13642865       0.00000000 </v>
     <v>       0.00000000       0.00000000       0.02894089 </v>
    </varray>
   </crystal>
   <varray name="positions" >
    <v>       0.11111111       0.22222222       0.33333333 </v>
    <v>       0.00000000       0.00000000       0.46666667 </v>
    <v>       0.22222222       0.11111111       0.40000000 </v>
    <v>       0.11111111       0.22222222       0.53333333 </v>
    <v>       0.32827641       0.00673235       0.66652147 </v>
    <v>       0.22222222       0.11111111       0.60000000 </v>
    <v>       0.11111111       0.55555556       0.33333333 </v>
    <v>       0.00000000       0.33333333       0.46666667 </v>
    <v>       0.22222222       0.44444444       0.40000000 </v>
    <v>       0.11111111       0.55555556       0.53333333 </v>
    <v>       0.34416278       0.33724159       0.66666338 </v>
    <v>       0.22222222       0.44444444       0.60000000 </v>
    <v>       0.11111111       0.88888889       0.33333333 </v>
    <v>       0.00000000       0.66666667       0.46666667 </v>
    <v>       0.22222222       0.77777778       0.40000000 </v>
    <v>       0.11111111       0.88888889       0.53333333 </v>
    <v>       0.33956178       0.65876134       0.66670522 </v>
    <v>       0.22222222       0.77777778       0.60000000 </v>
    <v>       0.44444444       0.22222222       0.33333333 </v>
    <v>       0.33333333       0.00000000       0.46666667 </v>
    <v>       0.55555556       0.11111111       0.40000000 </v>
    <v>       0.44444444       0.22222222       0.53333333 </v>
    <v>       0.67186448       0.01441979       0.66701751 </v>
    <v>       0.55555556       0.11111111       0.60000000 </v>
    <v>       0.44444444       0.55555556       0.33333333 </v>
    <v>       0.33333333       0.33333333       0.46666667 </v>
    <v>       0.55555556       0.44444444       0.40000000 </v>
    <v>       0.44444444       0.55555556       0.53333333 </v>
    <v>       0.65876533       0.32124992       0.66651821 </v>
    <v>       0.55555556       0.44444444       0.60000000 </v>
    <v>       0.44444444       0.88888889       0.33333333 </v>
    <v>       0.33333333       0.66666667       0.46666667 </v>
    <v>       0.55555556       0.77777778       0.40000000 </v>
    <v>       0.44444444       0.88888889       0.53333333 </v>
    <v>       0.65128425       0.65725466       0.66680075 </v>
    <v>       0.55555556       0.77777778       0.60000000 </v>
    <v>       0.77777778       0.22222222       0.33333333 </v>
    <v>       0.66666667       0.00000000       0.46666667 </v>
    <v>       0.88888889       0.11111111       0.40000000 </v>
    <v>       0.77777778       0.22222222       0.53333333 </v>
    <v>       0.00793431       0.99363033       0.66695565 </v>
    <v>       0.88888889       0.11111111       0.60000000 </v>
    <v>       0.77777778       0.55555556       0.33333333 </v>
    <v>       0.66666667       0.33333333       0.46666667 </v>
    <v>       0.88888889       0.44444444       0.40000000 </v>
    <v>       0.77777778       0.55555556       0.53333333 </v>
    <v>       0.98488388       0.32604080       0.66673184 </v>
    <v>       0.88888889       0.44444444       0.60000000 </v>
    <v>       0.77777778       0.88888889       0.33333333 </v>
    <v>       0.66666667       0.66666667       0.46666667 </v>
    <v>       0.88888889       0.77777778       0.40000000 </v>
    <v>       0.77777778       0.88888889       0.53333333 </v>
    <v>       0.00687748       0.68055447       0.66682542 </v>
    <v>       0.88888889       0.77777778       0.60000000 </v>
    <v>       0.44066701       0.89418191       0.70052796 </v>
    <v>       0.11078974       0.55510236       0.70012150 </v>
    <v>       0.77084794       0.54589142       0.70052758 </v>
    <v>       0.11910828       0.22471534       0.70057606 </v>
    <v>       0.77685997       0.88797251       0.69967082 </v>
   </varray>
  </structure>
  <varray name="forces" >
   <v>      -0.00144340       0.00559543      -0.12665214 </v>
   <v>       0.04602909      -0.02542138      -0.03658433 </v>
   <v>      -0.00978939      -0.03277276       0.19644105 </v>
   <v>       0.01782651      -0.01388747      -0.02729243 </v>
   <v>      -0.04781800       0.00106804      -0.03599501 </v>
   <v>       0.03280033      -0.09228665       0.09250767 </v>
   <v>      -0.00081117      -0.00116787      -0.14226309 </v>
   <v>      -0.05387549       0.01162494      -0.04159996 </v>
   <v>       0.01552129       0.02869727       0.17656455 </v>
   <v>      -0.00065814      -0.00033591      -0.09332020 </v>
   <v>       0.02744423       0.03737471      -0.06424988 </v>
   <v>      -0.06989604       0.06582856      -0.13684461 </v>
   <v>      -0.00248690      -0.00078160      -0.19679431 </v>
   <v>       0.03653071       0.04001771      -0.04062319 </v>
   <v>      -0.02516517      -0.00120148       0.17616250 </v>
   <v>      -0.02480046       0.03314619      -0.12393946 </v>
   <v>      -0.04591225       0.02352165       0.02860439 </v>
   <v>      -0.02962594      -0.10217162      -0.14483500 </v>
   <v>      -0.00222688      -0.00168233      -0.13428346 </v>
   <v>      -0.02206114      -0.00851945      -0.06234173 </v>
   <v>       0.03673845       0.00559893       0.19664532 </v>
   <v>      -0.00167820      -0.00135511      -0.06825156 </v>
   <v>      -0.02952533       0.03176174       0.02440928 </v>
   <v>       0.05505896       0.07414520       0.08071325 </v>
   <v>       0.00239100       0.00234303      -0.19715937 </v>
   <v>       0.00358946       0.02188533      -0.06047934 </v>
   <v>      -0.02343751       0.02846801       0.19682619 </v>
   <v>       0.04379394       0.00498538      -0.12717648 </v>
   <v>       0.01661323      -0.03241043      -0.03857153 </v>
   <v>      -0.11360828      -0.00519613       0.08156687 </v>
   <v>      -0.00279613      -0.00242227      -0.12829294 </v>
   <v>       0.01676669      -0.05322286      -0.03861095 </v>
   <v>       0.01336195      -0.01865247       0.22700106 </v>
   <v>       0.00612744       0.02379399      -0.02879923 </v>
   <v>       0.00487559      -0.04669429       0.04851825 </v>
   <v>      -0.05477623      -0.12474606       0.20073206 </v>
   <v>       0.00449747      -0.00446054      -0.19708006 </v>
   <v>      -0.00106609       0.05285704      -0.04367143 </v>
   <v>      -0.02598506      -0.00510250       0.22719424 </v>
   <v>      -0.01275407      -0.04059715      -0.12699662 </v>
   <v>       0.08073860       0.02201952       0.02764208 </v>
   <v>      -0.09896175       0.09582265       0.20251353 </v>
   <v>       0.00427159       0.00138672      -0.12798674 </v>
   <v>       0.01840920      -0.01487343      -0.05817542 </v>
   <v>       0.01325140      -0.02634568       0.17624608 </v>
   <v>      -0.02109212      -0.00402532      -0.02897111 </v>
   <v>       0.06852117       0.04250705       0.03388159 </v>
   <v>       0.09028401       0.02295235      -0.14172147 </v>
   <v>      -0.00134091      -0.00108955      -0.16899189 </v>
   <v>      -0.04443966      -0.02723008      -0.04490608 </v>
   <v>       0.00493818       0.01868690       0.22688320 </v>
   <v>      -0.00104487       0.00012410      -0.01050051 </v>
   <v>       0.00179199      -0.04773995       0.02328976 </v>
   <v>       0.12906596       0.01675481       0.20330745 </v>
   <v>      -0.07178131       0.04920852      -0.01383629 </v>
   <v>      -0.01397504       0.00767423       0.12877098 </v>
   <v>      -0.00534870      -0.06748135      -0.01901951 </v>
   <v>       0.07387128       0.01740188      -0.02258866 </v>
   <v>      -0.00492812       0.01662185       0.12298461 </v>
  </varray>
  <energy>
   <i name="e_fr_energy">   -311.80986151 </i>
   <i name="e_wo_entrp">   -311.69883546 </i>
   <i name="e_0_energy">   -311.77285282 </i>
  </energy>
  <time name="totalsc"> 1950.39 1952.17</time>
  <eigenvalues>
   <array>
    <dimension dim="1">band</dimension>
    <dimension dim="2">kpoint</dimension>
    <dimension dim="3">spin</dimension>
    <field>eigene</field>
    <field>occ</field>
    <set>
     <set comment="spin 1">
      <set comment="kpoint 1">
       <r>  -18.8991    1.0000 </r>
       <r>  -18.7352    1.0000 </r>
       <r>  -18.5776    1.0000 </r>
       <r>  -18.5739    1.0000 </r>
       <r>  -18.4495    1.0000 </r>
       <r>   -8.5110    1.0000 </r>
       <r>   -7.8366    1.0000 </r>
       <r>   -6.9890    1.0000 </r>
       <r>   -6.8645    1.0000 </r>
       <r>   -6.8617    1.0000 </r>
       <r>   -6.4409    1.0000 </r>
       <r>   -6.3733    1.0000 </r>
       <r>   -6.2794    1.0000 </r>
       <r>   -6.2767    1.0000 </r>
       <r>   -6.1775    1.0000 </r>
       <r>   -6.0336    1.0000 </r>
       <r>   -5.9227    1.0000 </r>
       <r>   -5.9225    1.0000 </r>
       <r>   -5.9139    1.0000 </r>
       <r>   -5.9137    1.0000 </r>
       <r>   -5.9026    1.0000 </r>
       <r>   -5.8621    1.0000 </r>
       <r>   -5.7415    1.0000 </r>
       <r>   -5.6677    1.0000 </r>
       <r>   -5.6655    1.0000 </r>
       <r>   -5.5174    1.0000 </r>
       <r>   -5.5091    1.0000 </r>
       <r>   -5.5087    1.0000 </r>
       <r>   -5.4775    1.0000 </r>
       <r>   -5.4767    1.0000 </r>
       <r>   -5.4724    1.0000 </r>
       <r>   -5.2974    1.0000 </r>
       <r>   -5.2468    1.0000 </r>
       <r>   -5.2464    1.0000 </r>
       <r>   -5.2385    1.0000 </r>
       <r>   -5.2380    1.0000 </r>
       <r>   -5.2281    1.0000 </r>
       <r>   -5.0052    1.0000 </r>
       <r>   -4.9624    1.0000 </r>
       <r>   -4.9582    1.0000 </r>
       <r>   -4.9040    1.0000 </r>
       <r>   -4.8965    1.0000 </r>
       <r>   -4.8951    1.0000 </r>
       <r>   -4.8704    1.0000 </r>
       <r>   -4.8688    1.0000 </r>
       <r>   -4.7520    1.0000 </r>
       <r>   -4.7414    1.0000 </r>
       <r>   -4.7380    1.0000 </r>
       <r>   -4.7252    1.0000 </r>
       <r>   -4.7240    1.0000 </r>
       <r>   -4.7085    1.0000 </r>
       <r>   -4.6216    1.0000 </r>
       <r>   -4.6146    1.0000 </r>
       <r>   -4.6139    1.0000 </r>
       <r>   -4.5896    1.0000 </r>
       <r>   -4.4804    1.0000 </r>
       <r>   -4.4555    1.0000 </r>
       <r>   -4.4541    1.0000 </r>
       <r>   -4.3984    1.0000 </r>
       <r>   -4.3929    1.0000 </r>
       <r>   -4.3926    1.0000 </r>
       <r>   -4.3826    1.0000 </r>
       <r>   -4.3822    1.0000 </r>
       <r>   -4.3801    1.0000 </r>
       <r>   -4.3782    1.0000 </r>
       <r>   -4.3604    1.0000 </r>
       <r>   -4.3596    1.0000 </r>
       <r>   -4.3448    1.0000 </r>
       <r>   -4.3444    1.0000 </r>
       <r>   -4.3167    1.0000 </r>
       <r>   -4.1998    1.0000 </r>
       <r>   -4.1946    1.0000 </r>
       <r>   -4.1941    1.0000 </r>
       <r>   -4.1862    1.0000 </r>
       <r>   -4.1062    1.0000 </r>
       <r>   -4.0874    1.0000 </r>
       <r>   -4.0864    1.0000 </r>
       <r>   -4.0438    1.0000 </r>
       <r>   -4.0421    1.0000 </r>
       <r>   -3.9196    1.0000 </r>
       <r>   -3.9193    1.0000 </r>
       <r>   -3.9107    1.0000 </r>
       <r>   -3.8067    1.0000 </r>
       <r>   -3.7097    1.0000 </r>
       <r>   -3.7095    1.0000 </r>
       <r>   -3.6772    1.0000 </r>
       <r>   -3.6758    1.0000 </r>
       <r>   -3.6745    1.0000 </r>
       <r>   -3.6483    1.0000 </r>
       <r>   -3.6298    1.0000 </r>
       <r>   -3.6290    1.0000 </r>
       <r>   -3.5780    1.0000 </r>
       <r>   -3.5640    1.0000 </r>
       <r>   -3.5640    1.0000 </r>
       <r>   -3.4640    1.0000 </r>
       <r>   -3.4160    1.0000 </r>
       <r>   -3.4119    1.0000 </r>
       <r>   -3.2948    1.0000 </r>
       <r>   -3.2917    1.0000 </r>
       <r>   -3.2304    1.0000 </r>
       <r>   -3.2279    1.0000 </r>
       <r>   -3.2269    1.0000 </r>
       <r>   -3.1700    1.0000 </r>
       <r>   -3.1694    1.0000 </r>
       <r>   -3.1035    1.0000 </r>
       <r>   -3.0033    1.0000 </r>
       <r>   -3.0005    1.0000 </r>
       <r>   -2.9881    1.0000 </r>
       <r>   -2.9874    1.0000 </r>
       <r>   -2.9305    1.0000 </r>
       <r>   -2.9295    1.0000 </r>
       <r>   -2.8566    1.0000 </r>
       <r>   -2.8561    1.0000 </r>
       <r>   -2.8148    1.0000 </r>
       <r>   -2.7776    1.0000 </r>
       <r>   -2.7047    1.0000 </r>
       <r>   -2.7043    1.0000 </r>
       <r>   -2.6957    1.0000 </r>
       <r>   -2.6932    1.0000 </r>
       <r>   -2.6929    1.0000 </r>
       <r>   -2.6856    1.0000 </r>
       <r>   -2.6782    1.0000 </r>
       <r>   -2.6324    1.0000 </r>
       <r>   -2.6317    1.0000 </r>
       <r>   -2.6283    1.0000 </r>
       <r>   -2.6096    1.0000 </r>
       <r>   -2.6092    1.0000 </r>
       <r>   -2.5800    1.0000 </r>
       <r>   -2.5246    1.0000 </r>
       <r>   -2.5241    1.0000 </r>
       <r>   -2.5103    1.0000 </r>
       <r>   -2.5101    1.0000 </r>
       <r>   -2.4739    1.0000 </r>
       <r>   -2.4673    1.0000 </r>
       <r>   -2.4663    1.0000 </r>
       <r>   -2.4545    1.0000 </r>
       <r>   -2.4541    1.0000 </r>
       <r>   -2.4303    1.0000 </r>
       <r>   -2.4291    1.0000 </r>
       <r>   -2.4268    1.0000 </r>
       <r>   -2.4046    1.0000 </r>
       <r>   -2.4016    1.0000 </r>
       <r>   -2.4015    1.0000 </r>
       <r>   -2.3347    1.0000 </r>
       <r>   -2.3346    1.0000 </r>
       <r>   -2.3215    1.0000 </r>
       <r>   -2.3211    1.0000 </r>
       <r>   -2.3127    1.0000 </r>
       <r>   -2.3032    1.0000 </r>
       <r>   -2.2920    1.0000 </r>
       <r>   -2.2913    1.0000 </r>
       <r>   -2.2803    1.0000 </r>
       <r>   -2.2786    1.0000 </r>
       <r>   -2.2655    1.0000 </r>
       <r>   -2.2219    1.0000 </r>
       <r>   -2.2209    1.0000 </r>
       <r>   -2.2086    1.0000 </r>
       <r>   -2.1565    1.0000 </r>
       <r>   -2.1531    1.0000 </r>
       <r>   -2.1522    1.0000 </r>
       <r>   -2.0653    1.0000 </r>
       <r>   -2.0651    1.0000 </r>
       <r>   -2.0490    1.0000 </r>
       <r>   -1.9855    1.0000 </r>
       <r>   -1.9769    1.0000 </r>
       <r>   -1.9769    1.0000 </r>
       <r>   -1.9563    1.0000 </r>
       <r>   -1.9560    1.0000 </r>
       <r>   -1.8793    1.0000 </r>
       <r>   -1.8793    1.0000 </r>
       <r>   -1.8617    1.0000 </r>
       <r>   -1.8151    1.0000 </r>
       <r>   -1.8150    1.0000 </r>
       <r>   -1.7984    1.0000 </r>
       <r>   -1.7974    1.0000 </r>
       <r>   -1.7701    1.0000 </r>
       <r>   -1.7406    1.0000 </r>
       <r>   -1.7390    1.0000 </r>
       <r>   -1.5947    1.0000 </r>
       <r>   -1.5223    1.0000 </r>
       <r>   -1.5209    1.0000 </r>
       <r>   -1.3447    1.0000 </r>
       <r>   -1.3388    1.0000 </r>
       <r>   -1.3381    1.0000 </r>
       <r>   -1.3119    1.0000 </r>
       <r>   -1.3030    1.0000 </r>
       <r>   -1.3022    1.0000 </r>
       <r>   -1.2344    1.0000 </r>
       <r>   -1.2144    1.0000 </r>
       <r>   -1.2091    1.0000 </r>
       <r>   -1.2086    1.0000 </r>
       <r>   -1.0930    1.0000 </r>
       <r>   -1.0922    1.0000 </r>
       <r>   -1.0512    1.0000 </r>
       <r>   -1.0504    1.0000 </r>
       <r>   -1.0468    1.0000 </r>
       <r>   -1.0119    1.0000 </r>
       <r>   -1.0114    1.0000 </r>
       <r>   -1.0037    1.0000 </r>
       <r>   -0.9797    1.0000 </r>
       <r>   -0.9754    1.0000 </r>
       <r>   -0.9752    1.0000 </r>
       <r>   -0.9716    1.0000 </r>
       <r>   -0.9701    1.0000 </r>
       <r>   -0.9697    1.0000 </r>
       <r>   -0.9688    1.0000 </r>
       <r>   -0.9086    1.0000 </r>
       <r>   -0.8666    1.0000 </r>
       <r>   -0.8658    1.0000 </r>
       <r>   -0.8437    1.0000 </r>
       <r>   -0.7364    1.0000 </r>
       <r>   -0.7329    1.0000 </r>
       <r>   -0.7266    1.0000 </r>
       <r>   -0.7217    1.0000 </r>
       <r>   -0.7193    1.0000 </r>
       <r>   -0.6330    1.0000 </r>
       <r>   -0.6324    1.0000 </r>
       <r>   -0.6083    1.0000 </r>
       <r>   -0.6082    1.0000 </r>
       <r>   -0.5860    1.0000 </r>
       <r>   -0.5646    1.0000 </r>
       <r>   -0.5640    1.0000 </r>
       <r>   -0.4355    1.0000 </r>
       <r>   -0.4330    1.0000 </r>
       <r>   -0.4160    1.0000 </r>
       <r>   -0.3380    1.0000 </r>
       <r>   -0.3375    1.0000 </r>
       <r>   -0.3101    1.0000 </r>
       <r>   -0.3089    1.0000 </r>
       <r>   -0.2882    1.0000 </r>
       <r>   -0.2585    1.0000 </r>
       <r>   -0.2567    1.0000 </r>
       <r>   -0.2561    1.0000 </r>
       <r>   -0.2090    1.0000 </r>
       <r>   -0.1924    1.0000 </r>
       <r>   -0.1920    1.0000 </r>
       <r>   -0.1473    1.0000 </r>
       <r>   -0.1467    1.0000 </r>
       <r>   -0.1225    1.0000 </r>
       <r>   -0.1183    1.0000 </r>
       <r>   -0.1174    1.0000 </r>
       <r>   -0.1156    1.0000 </r>
       <r>   -0.0970    1.0000 </r>
       <r>   -0.0969    1.0000 </r>
       <r>   -0.0867    1.0000 </r>
       <r>   -0.0866    1.0000 </r>
       <r>   -0.0864    1.0000 </r>
       <r>   -0.0693    1.0000 </r>
       <r>   -0.0324    1.0000 </r>
       <r>   -0.0324    1.0000 </r>
       <r>   -0.0033    1.0000 </r>
       <r>   -0.0030    1.0000 </r>
       <r>    0.0120    1.0000 </r>
       <r>    0.0400    1.0000 </r>
       <r>    0.1352    1.0000 </r>
       <r>    0.1359    1.0000 </r>
       <r>    0.1555    1.0000 </r>
       <r>    0.1557    1.0000 </r>
       <r>    0.1583    1.0000 </r>
       <r>    0.1791    1.0000 </r>
       <r>    0.1850    1.0000 </r>
       <r>    0.1855    1.0000 </r>
       <r>    0.2644    1.0001 </r>
       <r>    0.2693    1.0001 </r>
       <r>    0.2701    1.0001 </r>
       <r>    0.3032    1.0003 </r>
       <r>    0.3115    1.0003 </r>
       <r>    0.3118    1.0003 </r>
       <r>    0.3163    1.0004 </r>
       <r>    0.3194    1.0004 </r>
       <r>    0.3197    1.0004 </r>
       <r>    0.3515    1.0009 </r>
       <r>    0.3584    1.0010 </r>
       <r>    0.3695    1.0013 </r>
       <r>    0.3853    1.0018 </r>
       <r>    0.3857    1.0019 </r>
       <r>    0.3988    1.0024 </r>
       <r>    0.3991    1.0024 </r>
       <r>    0.4291    1.0044 </r>
       <r>    0.4712    1.0090 </r>
       <r>    0.4717    1.0090 </r>
       <r>    0.4817    1.0105 </r>
       <r>    0.4971    1.0131 </r>
       <r>    0.4977    1.0133 </r>
       <r>    0.5078    1.0152 </r>
       <r>    0.5082    1.0153 </r>
       <r>    0.5285    1.0195 </r>
       <r>    0.5765    1.0303 </r>
       <r>    0.5768    1.0304 </r>
       <r>    0.6311    1.0349 </r>
       <r>    0.6350    1.0344 </r>
       <r>    0.6355    1.0343 </r>
       <r>    0.6452    1.0323 </r>
       <r>    0.6965    0.9990 </r>
       <r>    0.6977    0.9977 </r>
       <r>    0.8056    0.7359 </r>
       <r>    0.8057    0.7357 </r>
       <r>    0.8083    0.7258 </r>
       <r>    0.8780    0.4412 </r>
       <r>    0.9205    0.2711 </r>
       <r>    0.9210    0.2694 </r>
       <r>    0.9683    0.1183 </r>
       <r>    0.9690    0.1167 </r>
       <r>    1.0053    0.0380 </r>
       <r>    1.0600   -0.0229 </r>
       <r>    1.1035   -0.0353 </r>
       <r>    1.1070   -0.0354 </r>
       <r>    1.2870   -0.0054 </r>
       <r>    1.4771   -0.0001 </r>
       <r>    1.4798   -0.0001 </r>
       <r>    1.5989   -0.0000 </r>
       <r>    1.7764   -0.0000 </r>
       <r>    1.8245   -0.0000 </r>
       <r>    1.8267   -0.0000 </r>
       <r>    1.9681   -0.0000 </r>
       <r>    1.9691   -0.0000 </r>
       <r>    2.5072   -0.0000 </r>
       <r>    2.7826   -0.0000 </r>
       <r>    2.7834   -0.0000 </r>
       <r>    2.8070   -0.0000 </r>
       <r>    3.2728   -0.0000 </r>
       <r>    3.5544   -0.0000 </r>
       <r>    3.5556   -0.0000 </r>
       <r>    3.8573   -0.0000 </r>
       <r>    4.1657   -0.0000 </r>
       <r>    4.1670   -0.0000 </r>
       <r>    4.2480   -0.0000 </r>
       <r>    5.1047   -0.0000 </r>
       <r>    5.1057   -0.0000 </r>
       <r>    5.1635   -0.0000 </r>
       <r>    5.3448   -0.0000 </r>
       <r>    5.3455   -0.0000 </r>
       <r>    5.3914   -0.0000 </r>
       <r>    5.4025   -0.0000 </r>
       <r>    5.4029   -0.0000 </r>
       <r>    5.4149   -0.0000 </r>
       <r>    5.6072   -0.0000 </r>
       <r>    5.6077   -0.0000 </r>
       <r>    5.7172   -0.0000 </r>
       <r>    6.0394   -0.0000 </r>
       <r>    6.0721   -0.0000 </r>
       <r>    6.0836   -0.0000 </r>
      </set>
      <set comment="kpoint 2">
       <r>  -18.8862    1.0000 </r>
       <r>  -18.7530    1.0000 </r>
       <r>  -18.5768    1.0000 </r>
       <r>  -18.5623    1.0000 </r>
       <r>  -18.4568    1.0000 </r>
       <r>   -8.3645    1.0000 </r>
       <r>   -7.7021    1.0000 </r>
       <r>   -6.8911    1.0000 </r>
       <r>   -6.8461    1.0000 </r>
       <r>   -6.7897    1.0000 </r>
       <r>   -6.5067    1.0000 </r>
       <r>   -6.3524    1.0000 </r>
       <r>   -6.3121    1.0000 </r>
       <r>   -6.2623    1.0000 </r>
       <r>   -6.2230    1.0000 </r>
       <r>   -6.1447    1.0000 </r>
       <r>   -6.0269    1.0000 </r>
       <r>   -5.9760    1.0000 </r>
       <r>   -5.8991    1.0000 </r>
       <r>   -5.8329    1.0000 </r>
       <r>   -5.7406    1.0000 </r>
       <r>   -5.7201    1.0000 </r>
       <r>   -5.6939    1.0000 </r>
       <r>   -5.6727    1.0000 </r>
       <r>   -5.6180    1.0000 </r>
       <r>   -5.5990    1.0000 </r>
       <r>   -5.5471    1.0000 </r>
       <r>   -5.4818    1.0000 </r>
       <r>   -5.3988    1.0000 </r>
       <r>   -5.3338    1.0000 </r>
       <r>   -5.3137    1.0000 </r>
       <r>   -5.2924    1.0000 </r>
       <r>   -5.2750    1.0000 </r>
       <r>   -5.2297    1.0000 </r>
       <r>   -5.2031    1.0000 </r>
       <r>   -5.1875    1.0000 </r>
       <r>   -5.1620    1.0000 </r>
       <r>   -5.0850    1.0000 </r>
       <r>   -5.0394    1.0000 </r>
       <r>   -5.0273    1.0000 </r>
       <r>   -4.9766    1.0000 </r>
       <r>   -4.9440    1.0000 </r>
       <r>   -4.9277    1.0000 </r>
       <r>   -4.8727    1.0000 </r>
       <r>   -4.8493    1.0000 </r>
       <r>   -4.8267    1.0000 </r>
       <r>   -4.7965    1.0000 </r>
       <r>   -4.7725    1.0000 </r>
       <r>   -4.7377    1.0000 </r>
       <r>   -4.7067    1.0000 </r>
       <r>   -4.6821    1.0000 </r>
       <r>   -4.6540    1.0000 </r>
       <r>   -4.6285    1.0000 </r>
       <r>   -4.6111    1.0000 </r>
       <r>   -4.5773    1.0000 </r>
       <r>   -4.5455    1.0000 </r>
       <r>   -4.5193    1.0000 </r>
       <r>   -4.5130    1.0000 </r>
       <r>   -4.5032    1.0000 </r>
       <r>   -4.4640    1.0000 </r>
       <r>   -4.4305    1.0000 </r>
       <r>   -4.3950    1.0000 </r>
       <r>   -4.3802    1.0000 </r>
       <r>   -4.3761    1.0000 </r>
       <r>   -4.3484    1.0000 </r>
       <r>   -4.3204    1.0000 </r>
       <r>   -4.2805    1.0000 </r>
       <r>   -4.2447    1.0000 </r>
       <r>   -4.2409    1.0000 </r>
       <r>   -4.2345    1.0000 </r>
       <r>   -4.2149    1.0000 </r>
       <r>   -4.2006    1.0000 </r>
       <r>   -4.1952    1.0000 </r>
       <r>   -4.1544    1.0000 </r>
       <r>   -4.1084    1.0000 </r>
       <r>   -4.0752    1.0000 </r>
       <r>   -4.0188    1.0000 </r>
       <r>   -4.0012    1.0000 </r>
       <r>   -3.9877    1.0000 </r>
       <r>   -3.9702    1.0000 </r>
       <r>   -3.9159    1.0000 </r>
       <r>   -3.8970    1.0000 </r>
       <r>   -3.8543    1.0000 </r>
       <r>   -3.7414    1.0000 </r>
       <r>   -3.7271    1.0000 </r>
       <r>   -3.6973    1.0000 </r>
       <r>   -3.6848    1.0000 </r>
       <r>   -3.6537    1.0000 </r>
       <r>   -3.6419    1.0000 </r>
       <r>   -3.6132    1.0000 </r>
       <r>   -3.5896    1.0000 </r>
       <r>   -3.5752    1.0000 </r>
       <r>   -3.5502    1.0000 </r>
       <r>   -3.5134    1.0000 </r>
       <r>   -3.4857    1.0000 </r>
       <r>   -3.4119    1.0000 </r>
       <r>   -3.4041    1.0000 </r>
       <r>   -3.3665    1.0000 </r>
       <r>   -3.3359    1.0000 </r>
       <r>   -3.3099    1.0000 </r>
       <r>   -3.2975    1.0000 </r>
       <r>   -3.2571    1.0000 </r>
       <r>   -3.2225    1.0000 </r>
       <r>   -3.2039    1.0000 </r>
       <r>   -3.1640    1.0000 </r>
       <r>   -3.1463    1.0000 </r>
       <r>   -3.1353    1.0000 </r>
       <r>   -3.1196    1.0000 </r>
       <r>   -3.0618    1.0000 </r>
       <r>   -2.9994    1.0000 </r>
       <r>   -2.9677    1.0000 </r>
       <r>   -2.9255    1.0000 </r>
       <r>   -2.9145    1.0000 </r>
       <r>   -2.8879    1.0000 </r>
       <r>   -2.8724    1.0000 </r>
       <r>   -2.8581    1.0000 </r>
       <r>   -2.8266    1.0000 </r>
       <r>   -2.8131    1.0000 </r>
       <r>   -2.7945    1.0000 </r>
       <r>   -2.7834    1.0000 </r>
       <r>   -2.7532    1.0000 </r>
       <r>   -2.7282    1.0000 </r>
       <r>   -2.7181    1.0000 </r>
       <r>   -2.6869    1.0000 </r>
       <r>   -2.6675    1.0000 </r>
       <r>   -2.6531    1.0000 </r>
       <r>   -2.6269    1.0000 </r>
       <r>   -2.6175    1.0000 </r>
       <r>   -2.5969    1.0000 </r>
       <r>   -2.5708    1.0000 </r>
       <r>   -2.5471    1.0000 </r>
       <r>   -2.5331    1.0000 </r>
       <r>   -2.5261    1.0000 </r>
       <r>   -2.5178    1.0000 </r>
       <r>   -2.5058    1.0000 </r>
       <r>   -2.4852    1.0000 </r>
       <r>   -2.4722    1.0000 </r>
       <r>   -2.4418    1.0000 </r>
       <r>   -2.4279    1.0000 </r>
       <r>   -2.4145    1.0000 </r>
       <r>   -2.4026    1.0000 </r>
       <r>   -2.3864    1.0000 </r>
       <r>   -2.3728    1.0000 </r>
       <r>   -2.3604    1.0000 </r>
       <r>   -2.3551    1.0000 </r>
       <r>   -2.3346    1.0000 </r>
       <r>   -2.3269    1.0000 </r>
       <r>   -2.3053    1.0000 </r>
       <r>   -2.2888    1.0000 </r>
       <r>   -2.2703    1.0000 </r>
       <r>   -2.2355    1.0000 </r>
       <r>   -2.2318    1.0000 </r>
       <r>   -2.2271    1.0000 </r>
       <r>   -2.2149    1.0000 </r>
       <r>   -2.1908    1.0000 </r>
       <r>   -2.1783    1.0000 </r>
       <r>   -2.1655    1.0000 </r>
       <r>   -2.1459    1.0000 </r>
       <r>   -2.1224    1.0000 </r>
       <r>   -2.1089    1.0000 </r>
       <r>   -2.1004    1.0000 </r>
       <r>   -2.0617    1.0000 </r>
       <r>   -2.0346    1.0000 </r>
       <r>   -2.0139    1.0000 </r>
       <r>   -1.9909    1.0000 </r>
       <r>   -1.9478    1.0000 </r>
       <r>   -1.9327    1.0000 </r>
       <r>   -1.9218    1.0000 </r>
       <r>   -1.9166    1.0000 </r>
       <r>   -1.9044    1.0000 </r>
       <r>   -1.8811    1.0000 </r>
       <r>   -1.8786    1.0000 </r>
       <r>   -1.8528    1.0000 </r>
       <r>   -1.8128    1.0000 </r>
       <r>   -1.7314    1.0000 </r>
       <r>   -1.7201    1.0000 </r>
       <r>   -1.7116    1.0000 </r>
       <r>   -1.6906    1.0000 </r>
       <r>   -1.6578    1.0000 </r>
       <r>   -1.6489    1.0000 </r>
       <r>   -1.5887    1.0000 </r>
       <r>   -1.5876    1.0000 </r>
       <r>   -1.5834    1.0000 </r>
       <r>   -1.5352    1.0000 </r>
       <r>   -1.5093    1.0000 </r>
       <r>   -1.4822    1.0000 </r>
       <r>   -1.4668    1.0000 </r>
       <r>   -1.4190    1.0000 </r>
       <r>   -1.3923    1.0000 </r>
       <r>   -1.3125    1.0000 </r>
       <r>   -1.2995    1.0000 </r>
       <r>   -1.2563    1.0000 </r>
       <r>   -1.2209    1.0000 </r>
       <r>   -1.1948    1.0000 </r>
       <r>   -1.1809    1.0000 </r>
       <r>   -1.1449    1.0000 </r>
       <r>   -1.1239    1.0000 </r>
       <r>   -1.1063    1.0000 </r>
       <r>   -1.0668    1.0000 </r>
       <r>   -1.0342    1.0000 </r>
       <r>   -1.0191    1.0000 </r>
       <r>   -0.9859    1.0000 </r>
       <r>   -0.9617    1.0000 </r>
       <r>   -0.9483    1.0000 </r>
       <r>   -0.9316    1.0000 </r>
       <r>   -0.9053    1.0000 </r>
       <r>   -0.8707    1.0000 </r>
       <r>   -0.8539    1.0000 </r>
       <r>   -0.8473    1.0000 </r>
       <r>   -0.8360    1.0000 </r>
       <r>   -0.8157    1.0000 </r>
       <r>   -0.8030    1.0000 </r>
       <r>   -0.7952    1.0000 </r>
       <r>   -0.7845    1.0000 </r>
       <r>   -0.7780    1.0000 </r>
       <r>   -0.7333    1.0000 </r>
       <r>   -0.6973    1.0000 </r>
       <r>   -0.6708    1.0000 </r>
       <r>   -0.6503    1.0000 </r>
       <r>   -0.6336    1.0000 </r>
       <r>   -0.6102    1.0000 </r>
       <r>   -0.5871    1.0000 </r>
       <r>   -0.5653    1.0000 </r>
       <r>   -0.5363    1.0000 </r>
       <r>   -0.5151    1.0000 </r>
       <r>   -0.4907    1.0000 </r>
       <r>   -0.4823    1.0000 </r>
       <r>   -0.4608    1.0000 </r>
       <r>   -0.4109    1.0000 </r>
       <r>   -0.3854    1.0000 </r>
       <r>   -0.3695    1.0000 </r>
       <r>   -0.3550    1.0000 </r>
       <r>   -0.3084    1.0000 </r>
       <r>   -0.2838    1.0000 </r>
       <r>   -0.2621    1.0000 </r>
       <r>   -0.2454    1.0000 </r>
       <r>   -0.2214    1.0000 </r>
       <r>   -0.1982    1.0000 </r>
       <r>   -0.1768    1.0000 </r>
       <r>   -0.1519    1.0000 </r>
       <r>   -0.1221    1.0000 </r>
       <r>   -0.1017    1.0000 </r>
       <r>   -0.0631    1.0000 </r>
       <r>   -0.0488    1.0000 </r>
       <r>   -0.0268    1.0000 </r>
       <r>   -0.0124    1.0000 </r>
       <r>    0.0020    1.0000 </r>
       <r>    0.0290    1.0000 </r>
       <r>    0.0488    1.0000 </r>
       <r>    0.0625    1.0000 </r>
       <r>    0.0799    1.0000 </r>
       <r>    0.1066    1.0000 </r>
       <r>    0.1222    1.0000 </r>
       <r>    0.1349    1.0000 </r>
       <r>    0.1644    1.0000 </r>
       <r>    0.1995    1.0000 </r>
       <r>    0.2152    1.0000 </r>
       <r>    0.2223    1.0000 </r>
       <r>    0.2416    1.0000 </r>
       <r>    0.2642    1.0001 </r>
       <r>    0.2793    1.0001 </r>
       <r>    0.2969    1.0002 </r>
       <r>    0.3282    1.0005 </r>
       <r>    0.3472    1.0008 </r>
       <r>    0.3704    1.0013 </r>
       <r>    0.3972    1.0024 </r>
       <r>    0.4218    1.0038 </r>
       <r>    0.4305    1.0045 </r>
       <r>    0.4376    1.0051 </r>
       <r>    0.4883    1.0116 </r>
       <r>    0.4945    1.0127 </r>
       <r>    0.5044    1.0145 </r>
       <r>    0.5346    1.0209 </r>
       <r>    0.5439    1.0230 </r>
       <r>    0.5536    1.0253 </r>
       <r>    0.5837    1.0317 </r>
       <r>    0.6074    1.0350 </r>
       <r>    0.6203    1.0355 </r>
       <r>    0.6360    1.0342 </r>
       <r>    0.6589    1.0276 </r>
       <r>    0.6732    1.0197 </r>
       <r>    0.6887    1.0072 </r>
       <r>    0.7072    0.9859 </r>
       <r>    0.7301    0.9488 </r>
       <r>    0.7333    0.9426 </r>
       <r>    0.7600    0.8810 </r>
       <r>    0.7684    0.8578 </r>
       <r>    0.7946    0.7749 </r>
       <r>    0.8190    0.6853 </r>
       <r>    0.8300    0.6416 </r>
       <r>    0.8494    0.5619 </r>
       <r>    0.8634    0.5027 </r>
       <r>    0.8843    0.4145 </r>
       <r>    0.8980    0.3583 </r>
       <r>    0.9165    0.2860 </r>
       <r>    0.9302    0.2364 </r>
       <r>    0.9465    0.1817 </r>
       <r>    0.9725    0.1075 </r>
       <r>    0.9878    0.0718 </r>
       <r>    1.0189    0.0168 </r>
       <r>    1.0604   -0.0231 </r>
       <r>    1.0893   -0.0338 </r>
       <r>    1.1144   -0.0353 </r>
       <r>    1.1303   -0.0339 </r>
       <r>    1.1757   -0.0250 </r>
       <r>    1.2227   -0.0147 </r>
       <r>    1.3045   -0.0039 </r>
       <r>    1.4410   -0.0002 </r>
       <r>    1.5123   -0.0000 </r>
       <r>    1.6896   -0.0000 </r>
       <r>    1.8061   -0.0000 </r>
       <r>    1.8619   -0.0000 </r>
       <r>    1.9464   -0.0000 </r>
       <r>    2.0001   -0.0000 </r>
       <r>    2.0285   -0.0000 </r>
       <r>    2.0476   -0.0000 </r>
       <r>    2.5133   -0.0000 </r>
       <r>    2.7288   -0.0000 </r>
       <r>    2.9310   -0.0000 </r>
       <r>    3.1341   -0.0000 </r>
       <r>    3.3019   -0.0000 </r>
       <r>    3.5215   -0.0000 </r>
       <r>    3.5855   -0.0000 </r>
       <r>    3.8534   -0.0000 </r>
       <r>    4.1672   -0.0000 </r>
       <r>    4.2766   -0.0000 </r>
       <r>    4.2945   -0.0000 </r>
       <r>    4.4983   -0.0000 </r>
       <r>    4.6568   -0.0000 </r>
       <r>    4.7788   -0.0000 </r>
       <r>    4.9078   -0.0000 </r>
       <r>    4.9341   -0.0000 </r>
       <r>    5.1616   -0.0000 </r>
       <r>    5.2492   -0.0000 </r>
       <r>    5.5462   -0.0000 </r>
       <r>    5.5554   -0.0000 </r>
       <r>    5.6464   -0.0000 </r>
       <r>    5.7918   -0.0000 </r>
       <r>    5.8958   -0.0000 </r>
       <r>    5.9901   -0.0000 </r>
       <r>    6.2053   -0.0000 </r>
       <r>    6.2343   -0.0000 </r>
      </set>
      <set comment="kpoint 3">
       <r>  -18.8864    1.0000 </r>
       <r>  -18.7526    1.0000 </r>
       <r>  -18.5800    1.0000 </r>
       <r>  -18.5591    1.0000 </r>
       <r>  -18.4571    1.0000 </r>
       <r>   -8.3645    1.0000 </r>
       <r>   -7.7021    1.0000 </r>
       <r>   -6.8916    1.0000 </r>
       <r>   -6.8467    1.0000 </r>
       <r>   -6.7881    1.0000 </r>
       <r>   -6.5070    1.0000 </r>
       <r>   -6.3520    1.0000 </r>
       <r>   -6.3121    1.0000 </r>
       <r>   -6.2632    1.0000 </r>
       <r>   -6.2219    1.0000 </r>
       <r>   -6.1454    1.0000 </r>
       <r>   -6.0267    1.0000 </r>
       <r>   -5.9764    1.0000 </r>
       <r>   -5.8989    1.0000 </r>
       <r>   -5.8327    1.0000 </r>
       <r>   -5.7405    1.0000 </r>
       <r>   -5.7203    1.0000 </r>
       <r>   -5.6936    1.0000 </r>
       <r>   -5.6729    1.0000 </r>
       <r>   -5.6186    1.0000 </r>
       <r>   -5.5990    1.0000 </r>
       <r>   -5.5474    1.0000 </r>
       <r>   -5.4817    1.0000 </r>
       <r>   -5.3982    1.0000 </r>
       <r>   -5.3342    1.0000 </r>
       <r>   -5.3139    1.0000 </r>
       <r>   -5.2916    1.0000 </r>
       <r>   -5.2751    1.0000 </r>
       <r>   -5.2288    1.0000 </r>
       <r>   -5.2029    1.0000 </r>
       <r>   -5.1878    1.0000 </r>
       <r>   -5.1634    1.0000 </r>
       <r>   -5.0838    1.0000 </r>
       <r>   -5.0413    1.0000 </r>
       <r>   -5.0257    1.0000 </r>
       <r>   -4.9764    1.0000 </r>
       <r>   -4.9449    1.0000 </r>
       <r>   -4.9282    1.0000 </r>
       <r>   -4.8719    1.0000 </r>
       <r>   -4.8493    1.0000 </r>
       <r>   -4.8263    1.0000 </r>
       <r>   -4.7965    1.0000 </r>
       <r>   -4.7721    1.0000 </r>
       <r>   -4.7377    1.0000 </r>
       <r>   -4.7062    1.0000 </r>
       <r>   -4.6823    1.0000 </r>
       <r>   -4.6535    1.0000 </r>
       <r>   -4.6287    1.0000 </r>
       <r>   -4.6113    1.0000 </r>
       <r>   -4.5779    1.0000 </r>
       <r>   -4.5456    1.0000 </r>
       <r>   -4.5191    1.0000 </r>
       <r>   -4.5132    1.0000 </r>
       <r>   -4.5034    1.0000 </r>
       <r>   -4.4629    1.0000 </r>
       <r>   -4.4305    1.0000 </r>
       <r>   -4.3955    1.0000 </r>
       <r>   -4.3800    1.0000 </r>
       <r>   -4.3760    1.0000 </r>
       <r>   -4.3483    1.0000 </r>
       <r>   -4.3204    1.0000 </r>
       <r>   -4.2807    1.0000 </r>
       <r>   -4.2447    1.0000 </r>
       <r>   -4.2407    1.0000 </r>
       <r>   -4.2341    1.0000 </r>
       <r>   -4.2152    1.0000 </r>
       <r>   -4.2014    1.0000 </r>
       <r>   -4.1948    1.0000 </r>
       <r>   -4.1549    1.0000 </r>
       <r>   -4.1082    1.0000 </r>
       <r>   -4.0753    1.0000 </r>
       <r>   -4.0185    1.0000 </r>
       <r>   -4.0006    1.0000 </r>
       <r>   -3.9882    1.0000 </r>
       <r>   -3.9700    1.0000 </r>
       <r>   -3.9160    1.0000 </r>
       <r>   -3.8969    1.0000 </r>
       <r>   -3.8546    1.0000 </r>
       <r>   -3.7404    1.0000 </r>
       <r>   -3.7279    1.0000 </r>
       <r>   -3.6983    1.0000 </r>
       <r>   -3.6839    1.0000 </r>
       <r>   -3.6539    1.0000 </r>
       <r>   -3.6425    1.0000 </r>
       <r>   -3.6136    1.0000 </r>
       <r>   -3.5894    1.0000 </r>
       <r>   -3.5747    1.0000 </r>
       <r>   -3.5506    1.0000 </r>
       <r>   -3.5131    1.0000 </r>
       <r>   -3.4857    1.0000 </r>
       <r>   -3.4121    1.0000 </r>
       <r>   -3.4041    1.0000 </r>
       <r>   -3.3666    1.0000 </r>
       <r>   -3.3363    1.0000 </r>
       <r>   -3.3102    1.0000 </r>
       <r>   -3.2965    1.0000 </r>
       <r>   -3.2578    1.0000 </r>
       <r>   -3.2233    1.0000 </r>
       <r>   -3.2035    1.0000 </r>
       <r>   -3.1649    1.0000 </r>
       <r>   -3.1455    1.0000 </r>
       <r>   -3.1356    1.0000 </r>
       <r>   -3.1193    1.0000 </r>
       <r>   -3.0622    1.0000 </r>
       <r>   -2.9994    1.0000 </r>
       <r>   -2.9679    1.0000 </r>
       <r>   -2.9255    1.0000 </r>
       <r>   -2.9140    1.0000 </r>
       <r>   -2.8884    1.0000 </r>
       <r>   -2.8724    1.0000 </r>
       <r>   -2.8582    1.0000 </r>
       <r>   -2.8266    1.0000 </r>
       <r>   -2.8124    1.0000 </r>
       <r>   -2.7957    1.0000 </r>
       <r>   -2.7846    1.0000 </r>
       <r>   -2.7521    1.0000 </r>
       <r>   -2.7280    1.0000 </r>
       <r>   -2.7180    1.0000 </r>
       <r>   -2.6879    1.0000 </r>
       <r>   -2.6680    1.0000 </r>
       <r>   -2.6522    1.0000 </r>
       <r>   -2.6264    1.0000 </r>
       <r>   -2.6171    1.0000 </r>
       <r>   -2.5972    1.0000 </r>
       <r>   -2.5708    1.0000 </r>
       <r>   -2.5468    1.0000 </r>
       <r>   -2.5329    1.0000 </r>
       <r>   -2.5259    1.0000 </r>
       <r>   -2.5177    1.0000 </r>
       <r>   -2.5045    1.0000 </r>
       <r>   -2.4845    1.0000 </r>
       <r>   -2.4729    1.0000 </r>
[...]
       <r>   -17.8886    -0.0390    10.0004 </r>
       <r>   -17.7915    -0.0036    10.0000 </r>
       <r>   -17.6944    -0.0002    10.0000 </r>
       <r>   -17.5973    -0.0000    10.0000 </r>
       <r>   -17.5002    -0.0000    10.0000 </r>
       <r>   -17.4031    -0.0000    10.0000 </r>
       <r>   -17.3060    -0.0000    10.0000 </r>
       <r>   -17.2089    -0.0000    10.0000 </r>
       <r>   -17.1118     0.0000    10.0000 </r>
       <r>   -17.0146     0.0000    10.0000 </r>
       <r>   -16.9175     0.0000    10.0000 </r>
       <r>   -16.8204     0.0000    10.0000 </r>
       <r>   -16.7233     0.0000    10.0000 </r>
       <r>   -16.6262     0.0000    10.0000 </r>
       <r>   -16.5291     0.0000    10.0000 </r>
       <r>   -16.4320     0.0000    10.0000 </r>
       <r>   -16.3349     0.0000    10.0000 </r>
       <r>   -16.2377     0.0000    10.0000 </r>
       <r>   -16.1406     0.0000    10.0000 </r>
       <r>   -16.0435     0.0000    10.0000 </r>
       <r>   -15.9464     0.0000    10.0000 </r>
       <r>   -15.8493     0.0000    10.0000 </r>
       <r>   -15.7522     0.0000    10.0000 </r>
       <r>   -15.6551     0.0000    10.0000 </r>
       <r>   -15.5580     0.0000    10.0000 </r>
       <r>   -15.4609     0.0000    10.0000 </r>
       <r>   -15.3637     0.0000    10.0000 </r>
       <r>   -15.2666     0.0000    10.0000 </r>
       <r>   -15.1695     0.0000    10.0000 </r>
       <r>   -15.0724     0.0000    10.0000 </r>
       <r>   -14.9753     0.0000    10.0000 </r>
       <r>   -14.8782     0.0000    10.0000 </r>
       <r>   -14.7811     0.0000    10.0000 </r>
       <r>   -14.6840     0.0000    10.0000 </r>
       <r>   -14.5869     0.0000    10.0000 </r>
       <r>   -14.4897     0.0000    10.0000 </r>
       <r>   -14.3926     0.0000    10.0000 </r>
       <r>   -14.2955     0.0000    10.0000 </r>
       <r>   -14.1984     0.0000    10.0000 </r>
       <r>   -14.1013     0.0000    10.0000 </r>
       <r>   -14.0042     0.0000    10.0000 </r>
       <r>   -13.9071     0.0000    10.0000 </r>
       <r>   -13.8100     0.0000    10.0000 </r>
       <r>   -13.7128     0.0000    10.0000 </r>
       <r>   -13.6157     0.0000    10.0000 </r>
       <r>   -13.5186     0.0000    10.0000 </r>
       <r>   -13.4215     0.0000    10.0000 </r>
       <r>   -13.3244     0.0000    10.0000 </r>
       <r>   -13.2273     0.0000    10.0000 </r>
       <r>   -13.1302     0.0000    10.0000 </r>
       <r>   -13.0331     0.0000    10.0000 </r>
       <r>   -12.9360     0.0000    10.0000 </r>
       <r>   -12.8388     0.0000    10.0000 </r>
       <r>   -12.7417     0.0000    10.0000 </r>
       <r>   -12.6446     0.0000    10.0000 </r>
       <r>   -12.5475     0.0000    10.0000 </r>
       <r>   -12.4504     0.0000    10.0000 </r>
       <r>   -12.3533     0.0000    10.0000 </r>
       <r>   -12.2562     0.0000    10.0000 </r>
       <r>   -12.1591     0.0000    10.0000 </r>
       <r>   -12.0620     0.0000    10.0000 </r>
       <r>   -11.9648     0.0000    10.0000 </r>
       <r>   -11.8677     0.0000    10.0000 </r>
       <r>   -11.7706     0.0000    10.0000 </r>
       <r>   -11.6735     0.0000    10.0000 </r>
       <r>   -11.5764     0.0000    10.0000 </r>
       <r>   -11.4793     0.0000    10.0000 </r>
       <r>   -11.3822     0.0000    10.0000 </r>
       <r>   -11.2851     0.0000    10.0000 </r>
       <r>   -11.1880     0.0000    10.0000 </r>
       <r>   -11.0908     0.0000    10.0000 </r>
       <r>   -10.9937     0.0000    10.0000 </r>
       <r>   -10.8966     0.0000    10.0000 </r>
       <r>   -10.7995     0.0000    10.0000 </r>
       <r>   -10.7024     0.0000    10.0000 </r>
       <r>   -10.6053     0.0000    10.0000 </r>
       <r>   -10.5082     0.0000    10.0000 </r>
       <r>   -10.4111     0.0000    10.0000 </r>
       <r>   -10.3139     0.0000    10.0000 </r>
       <r>   -10.2168     0.0000    10.0000 </r>
       <r>   -10.1197    -0.0000    10.0000 </r>
       <r>   -10.0226    -0.0000    10.0000 </r>
       <r>    -9.9255    -0.0000    10.0000 </r>
       <r>    -9.8284    -0.0000    10.0000 </r>
       <r>    -9.7313    -0.0000    10.0000 </r>
       <r>    -9.6342    -0.0000    10.0000 </r>
       <r>    -9.5371    -0.0000    10.0000 </r>
       <r>    -9.4399    -0.0000    10.0000 </r>
       <r>    -9.3428    -0.0000    10.0000 </r>
       <r>    -9.2457    -0.0000    10.0000 </r>
       <r>    -9.1486    -0.0000    10.0000 </r>
       <r>    -9.0515    -0.0004    10.0000 </r>
       <r>    -8.9544    -0.0033     9.9996 </r>
       <r>    -8.8573    -0.0172     9.9980 </r>
       <r>    -8.7602    -0.0507     9.9930 </r>
       <r>    -8.6631    -0.0503     9.9882 </r>
       <r>    -8.5659     0.2143    10.0090 </r>
       <r>    -8.4688     0.9973    10.1058 </r>
       <r>    -8.3717     1.8503    10.2855 </r>
       <r>    -8.2746     1.8559    10.4657 </r>
       <r>    -8.1775     1.5545    10.6167 </r>
       <r>    -8.0804     2.1840    10.8288 </r>
       <r>    -7.9833     3.0330    11.1233 </r>
       <r>    -7.8862     2.8394    11.3991 </r>
       <r>    -7.7890     2.2572    11.6183 </r>
       <r>    -7.6919     2.8073    11.8909 </r>
       <r>    -7.5948     4.5532    12.3331 </r>
       <r>    -7.4977     6.1185    12.9272 </r>
       <r>    -7.4006     6.4202    13.5507 </r>
       <r>    -7.3035     5.1758    14.0533 </r>
       <r>    -7.2064     2.9405    14.3389 </r>
       <r>    -7.1093     2.7261    14.6036 </r>
       <r>    -7.0122     7.3064    15.3132 </r>
       <r>    -6.9150    13.3786    16.6124 </r>
       <r>    -6.8179    14.7487    18.0447 </r>
       <r>    -6.7208    12.0436    19.2142 </r>
       <r>    -6.6237    10.9604    20.2786 </r>
       <r>    -6.5266    12.6472    21.5068 </r>
       <r>    -6.4295    16.0668    23.0671 </r>
       <r>    -6.3324    21.1809    25.1240 </r>
       <r>    -6.2353    24.8666    27.5388 </r>
       <r>    -6.1382    25.2749    29.9933 </r>
       <r>    -6.0410    24.5600    32.3784 </r>
       <r>    -5.9439    23.9968    34.7087 </r>
       <r>    -5.8468    25.2317    37.1590 </r>
       <r>    -5.7497    30.8784    40.1577 </r>
       <r>    -5.6526    39.1280    43.9574 </r>
       <r>    -5.5555    44.5591    48.2846 </r>
       <r>    -5.4584    47.0529    52.8540 </r>
       <r>    -5.3613    51.8044    57.8848 </r>
       <r>    -5.2642    58.9036    63.6050 </r>
       <r>    -5.1670    63.2195    69.7444 </r>
       <r>    -5.0699    65.0085    76.0574 </r>
       <r>    -4.9728    68.8940    82.7478 </r>
       <r>    -4.8757    73.8601    89.9205 </r>
       <r>    -4.7786    75.5126    97.2536 </r>
       <r>    -4.6815    74.1386   104.4533 </r>
       <r>    -4.5844    73.1029   111.5525 </r>
       <r>    -4.4873    75.3495   118.8698 </r>
       <r>    -4.3901    79.3360   126.5742 </r>
       <r>    -4.2930    78.6268   134.2098 </r>
       <r>    -4.1959    72.5064   141.2510 </r>
       <r>    -4.0988    66.2160   147.6813 </r>
       <r>    -4.0017    61.9254   153.6950 </r>
       <r>    -3.9046    58.1540   159.3424 </r>
       <r>    -3.8075    57.6253   164.9385 </r>
       <r>    -3.7104    65.4047   171.2900 </r>
       <r>    -3.6133    74.2491   178.5005 </r>
       <r>    -3.5161    75.2737   185.8104 </r>
       <r>    -3.4190    75.3202   193.1249 </r>
       <r>    -3.3219    80.4721   200.9396 </r>
       <r>    -3.2248    85.5886   209.2513 </r>
       <r>    -3.1277    85.6777   217.5715 </r>
       <r>    -3.0306    82.1814   225.5523 </r>
       <r>    -2.9335    81.2639   233.4440 </r>
       <r>    -2.8364    84.6462   241.6641 </r>
       <r>    -2.7393    88.3883   250.2476 </r>
       <r>    -2.6421    91.7712   259.1596 </r>
       <r>    -2.5450    97.7440   268.6517 </r>
       <r>    -2.4479   106.5979   279.0036 </r>
       <r>    -2.3508   113.6226   290.0376 </r>
       <r>    -2.2537   114.9094   301.1967 </r>
       <r>    -2.1566   111.3800   312.0129 </r>
       <r>    -2.0595   105.6529   322.2730 </r>
       <r>    -1.9624   100.0220   331.9863 </r>
       <r>    -1.8652    96.2924   341.3374 </r>
       <r>    -1.7681    94.1207   350.4776 </r>
       <r>    -1.6710    88.8521   359.1062 </r>
       <r>    -1.5739    77.6793   366.6497 </r>
       <r>    -1.4768    67.5821   373.2127 </r>
       <r>    -1.3797    66.7425   379.6942 </r>
       <r>    -1.2826    73.2060   386.8033 </r>
       <r>    -1.1855    79.1641   394.4911 </r>
       <r>    -1.0884    83.2802   402.5785 </r>
       <r>    -0.9912    90.6027   411.3771 </r>
       <r>    -0.8941    97.8094   420.8755 </r>
       <r>    -0.7970    94.5099   430.0535 </r>
       <r>    -0.6999    81.6824   437.9858 </r>
       <r>    -0.6028    71.7497   444.9535 </r>
       <r>    -0.5057    70.6642   451.8158 </r>
       <r>    -0.4086    74.2317   459.0246 </r>
       <r>    -0.3115    79.2776   466.7233 </r>
       <r>    -0.2144    84.8175   474.9601 </r>
       <r>    -0.1172    87.3279   483.4406 </r>
       <r>    -0.0201    84.9586   491.6911 </r>
       <r>     0.0770    79.9830   499.4583 </r>
       <r>     0.1741    75.9488   506.8338 </r>
       <r>     0.2712    75.7970   514.1946 </r>
       <r>     0.3683    79.0968   521.8758 </r>
       <r>     0.4654    84.6520   530.0965 </r>
       <r>     0.5625    92.3039   539.0603 </r>
       <r>     0.6596    99.5100   548.7238 </r>
       <r>     0.7568   104.0648   558.8297 </r>
       <r>     0.8539   104.4088   568.9690 </r>
       <r>     0.9510    96.4068   578.3312 </r>
       <r>     1.0481    82.7558   586.3677 </r>
       <r>     1.1452    71.2569   593.2876 </r>
       <r>     1.2423    59.8859   599.1032 </r>
       <r>     1.3394    44.4189   603.4168 </r>
       <r>     1.4365    28.9568   606.2288 </r>
       <r>     1.5337    19.0874   608.0824 </r>
       <r>     1.6308    17.5791   609.7896 </r>
       <r>     1.7279    21.9819   611.9243 </r>
       <r>     1.8250    23.9790   614.2529 </r>
       <r>     1.9221    22.5698   616.4447 </r>
       <r>     2.0192    23.9255   618.7681 </r>
       <r>     2.1163    25.2701   621.2221 </r>
       <r>     2.2134    21.7415   623.3335 </r>
       <r>     2.3105    16.8915   624.9738 </r>
       <r>     2.4077    14.5621   626.3880 </r>
       <r>     2.5048    13.7314   627.7215 </r>
       <r>     2.6019    13.0019   628.9841 </r>
       <r>     2.6990    14.4297   630.3854 </r>
       <r>     2.7961    17.3807   632.0733 </r>
       <r>     2.8932    17.5973   633.7822 </r>
       <r>     2.9903    16.2364   635.3589 </r>
       <r>     3.0874    16.6679   636.9776 </r>
       <r>     3.1845    17.5734   638.6841 </r>
       <r>     3.2817    15.5673   640.1959 </r>
       <r>     3.3788    12.5957   641.4191 </r>
       <r>     3.4759    14.6333   642.8401 </r>
       <r>     3.5730    20.1049   644.7926 </r>
       <r>     3.6701    20.9279   646.8249 </r>
       <r>     3.7672    16.1492   648.3932 </r>
       <r>     3.8643    12.5196   649.6090 </r>
       <r>     3.9614    13.6555   650.9351 </r>
       <r>     4.0586    16.9771   652.5837 </r>
       <r>     4.1557    18.9771   654.4266 </r>
       <r>     4.2528    19.2504   656.2961 </r>
       <r>     4.3499    17.9857   658.0427 </r>
       <r>     4.4470    15.4901   659.5470 </r>
       <r>     4.5441    13.9768   660.9043 </r>
       <r>     4.6412    13.8788   662.2521 </r>
       <r>     4.7383    13.8332   663.5954 </r>
       <r>     4.8354    14.0345   664.9583 </r>
       <r>     4.9326    14.0545   666.3232 </r>
       <r>     5.0297    13.0584   667.5913 </r>
       <r>     5.1268    13.3413   668.8869 </r>
       <r>     5.2239    15.7620   670.4176 </r>
       <r>     5.3210    15.9424   671.9658 </r>
       <r>     5.4181    13.5352   673.2802 </r>
       <r>     5.5152    13.9216   674.6321 </r>
       <r>     5.6123    16.7164   676.2555 </r>
       <r>     5.7094    17.0928   677.9154 </r>
       <r>     5.8066    14.6434   679.3374 </r>
       <r>     5.9037    11.1750   680.4227 </r>
       <r>     6.0008     8.4701   681.2452 </r>
       <r>     6.0979     8.7149   682.0915 </r>
       <r>     6.1950     9.8695   683.0500 </r>
       <r>     6.2921     7.5289   683.7811 </r>
       <r>     6.3892     2.8466   684.0575 </r>
       <r>     6.4863     0.0207   684.0596 </r>
       <r>     6.5834    -0.4129   684.0195 </r>
       <r>     6.6806    -0.1652   684.0034 </r>
       <r>     6.7777    -0.0315   684.0004 </r>
       <r>     6.8748    -0.0034   684.0000 </r>
       <r>     6.9719    -0.0002   684.0000 </r>
       <r>     7.0690    -0.0000   684.0000 </r>
       <r>     7.1661    -0.0000   684.0000 </r>
       <r>     7.2632    -0.0000   684.0000 </r>
       <r>     7.3603    -0.0000   684.0000 </r>
       <r>     7.4575    -0.0000   684.0000 </r>
       <r>     7.5546     0.0000   684.0000 </r>
       <r>     7.6517     0.0000   684.0000 </r>
       <r>     7.7488     0.0000   684.0000 </r>
       <r>     7.8459     0.0000   684.0000 </r>
       <r>     7.9430     0.0000   684.0000 </r>
       <r>     8.0401     0.0000   684.0000 </r>
       <r>     8.1372     0.0000   684.0000 </r>
       <r>     8.2343     0.0000   684.0000 </r>
      </set>
     </set>
    </array>
   </total>
  </dos>
 </calculation>
 <structure name="finalpos" >
  <crystal>
   <varray name="basis" >
    <v>       8.46376883       0.00000000      -0.00000000 </v>
    <v>      -4.23188442       7.32983882       0.00000000 </v>
    <v>       0.00000000       0.00000000      34.55319157 </v>
   </varray>
   <i name="volume">   2143.61301901 </i>
   <varray name="rec_basis" >
    <v>       0.11815067       0.06821432      -0.00000000 </v>
    <v>      -0.00000000       0.13642865       0.00000000 </v>
    <v>       0.00000000       0.00000000       0.02894089 </v>
   </varray>
  </crystal>
  <varray name="positions" >
   <v>       0.11111111       0.22222222       0.33333333 </v>
   <v>       0.00000000       0.00000000       0.46666667 </v>
   <v>       0.22222222       0.11111111       0.40000000 </v>
   <v>       0.11111111       0.22222222       0.53333333 </v>
   <v>       0.32827641       0.00673235       0.66652147 </v>
   <v>       0.22222222       0.11111111       0.60000000 </v>
   <v>       0.11111111       0.55555556       0.33333333 </v>
   <v>       0.00000000       0.33333333       0.46666667 </v>
   <v>       0.22222222       0.44444444       0.40000000 </v>
   <v>       0.11111111       0.55555556       0.53333333 </v>
   <v>       0.34416278       0.33724159       0.66666338 </v>
   <v>       0.22222222       0.44444444       0.60000000 </v>
   <v>       0.11111111       0.88888889       0.33333333 </v>
   <v>       0.00000000       0.66666667       0.46666667 </v>
   <v>       0.22222222       0.77777778       0.40000000 </v>
   <v>       0.11111111       0.88888889       0.53333333 </v>
   <v>       0.33956178       0.65876134       0.66670522 </v>
   <v>       0.22222222       0.77777778       0.60000000 </v>
   <v>       0.44444444       0.22222222       0.33333333 </v>
   <v>       0.33333333       0.00000000       0.46666667 </v>
   <v>       0.55555556       0.11111111       0.40000000 </v>
   <v>       0.44444444       0.22222222       0.53333333 </v>
   <v>       0.67186448       0.01441979       0.66701751 </v>
   <v>       0.55555556       0.11111111       0.60000000 </v>
   <v>       0.44444444       0.55555556       0.33333333 </v>
   <v>       0.33333333       0.33333333       0.46666667 </v>
   <v>       0.55555556       0.44444444       0.40000000 </v>
   <v>       0.44444444       0.55555556       0.53333333 </v>
   <v>       0.65876533       0.32124992       0.66651821 </v>
   <v>       0.55555556       0.44444444       0.60000000 </v>
   <v>       0.44444444       0.88888889       0.33333333 </v>
   <v>       0.33333333       0.66666667       0.46666667 </v>
   <v>       0.55555556       0.77777778       0.40000000 </v>
   <v>       0.44444444       0.88888889       0.53333333 </v>
   <v>       0.65128425       0.65725466       0.66680075 </v>
   <v>       0.55555556       0.77777778       0.60000000 </v>
   <v>       0.77777778       0.22222222       0.33333333 </v>
   <v>       0.66666667       0.00000000       0.46666667 </v>
   <v>       0.88888889       0.11111111       0.40000000 </v>
   <v>       0.77777778       0.22222222       0.53333333 </v>
   <v>       0.00793431       0.99363033       0.66695565 </v>
   <v>       0.88888889       0.11111111       0.60000000 </v>
   <v>       0.77777778       0.55555556       0.33333333 </v>
   <v>       0.66666667       0.33333333       0.46666667 </v>
   <v>       0.88888889       0.44444444       0.40000000 </v>
   <v>       0.77777778       0.55555556       0.53333333 </v>
   <v>       0.98488388       0.32604080       0.66673184 </v>
   <v>       0.88888889       0.44444444       0.60000000 </v>
   <v>       0.77777778       0.88888889       0.33333333 </v>
   <v>       0.66666667       0.66666667       0.46666667 </v>
   <v>       0.88888889       0.77777778       0.40000000 </v>
   <v>       0.77777778       0.88888889       0.53333333 </v>
   <v>       0.00687748       0.68055447       0.66682542 </v>
   <v>       0.88888889       0.77777778       0.60000000 </v>
   <v>       0.44066701       0.89418191       0.70052796 </v>
   <v>       0.11078974       0.55510236       0.70012150 </v>
   <v>       0.77084794       0.54589142       0.70052758 </v>
   <v>       0.11910828       0.22471534       0.70057606 </v>
   <v>       0.77685997       0.88797251       0.69967082 </v>
  </varray>
  <varray name="selective"  type="logical" >
   <v type="logical" >  F  F  F </v>
   <v type="logical" >  F  F  F </v>
   <v type="logical" >  F  F  F </v>
   <v type="logical" >  F  F  F </v>
   <v type="logical" >  T  T  T </v>
   <v type="logical" >  F  F  F </v>
   <v type="logical" >  F  F  F </v>
   <v type="logical" >  F  F  F </v>
   <v type="logical" >  F  F  F </v>
   <v type="logical" >  F  F  F </v>
   <v type="logical" >  T  T  T </v>
   <v type="logical" >  F  F  F </v>
   <v type="logical" >  F  F  F </v>
   <v type="logical" >  F  F  F </v>
   <v type="logical" >  F  F  F </v>
   <v type="logical" >  F  F  F </v>
   <v type="logical" >  T  T  T </v>
   <v type="logical" >  F  F  F </v>
   <v type="logical" >  F  F  F </v>
   <v type="logical" >  F  F  F </v>
   <v type="logical" >  F  F  F </v>
   <v type="logical" >  F  F  F </v>
   <v type="logical" >  T  T  T </v>
   <v type="logical" >  F  F  F </v>
   <v type="logical" >  F  F  F </v>
   <v type="logical" >  F  F  F </v>
   <v type="logical" >  F  F  F </v>
   <v type="logical" >  F  F  F </v>
   <v type="logical" >  T  T  T </v>
   <v type="logical" >  F  F  F </v>
   <v type="logical" >  F  F  F </v>
   <v type="logical" >  F  F  F </v>
   <v type="logical" >  F  F  F </v>
   <v type="logical" >  F  F  F </v>
   <v type="logical" >  T  T  T </v>
   <v type="logical" >  F  F  F </v>
   <v type="logical" >  F  F  F </v>
   <v type="logical" >  F  F  F </v>
   <v type="logical" >  F  F  F </v>
   <v type="logical" >  F  F  F </v>
   <v type="logical" >  T  T  T </v>
   <v type="logical" >  F  F  F </v>
   <v type="logical" >  F  F  F </v>
   <v type="logical" >  F  F  F </v>
   <v type="logical" >  F  F  F </v>
   <v type="logical" >  F  F  F </v>
   <v type="logical" >  T  T  T </v>
   <v type="logical" >  F  F  F </v>
   <v type="logical" >  F  F  F </v>
   <v type="logical" >  F  F  F </v>
   <v type="logical" >  F  F  F </v>
   <v type="logical" >  F  F  F </v>
   <v type="logical" >  T  T  T </v>
   <v type="logical" >  F  F  F </v>
   <v type="logical" >  T  T  T </v>
   <v type="logical" >  T  T  T </v>
   <v type="logical" >  T  T  T </v>
   <v type="logical" >  T  T  T </v>
   <v type="logical" >  T  T  T </v>
  </varray>
  <nose>
   <v>      -3.00000000       0.00000000       0.00010000       0.00010000 </v>
  </nose>
 </structure>
</modeling>
