<?xml version="1.0" encoding="ISO-8859-1"?>
<modeling>
 <generator>
  <i name="program" type="string">vasp </i>
  <i name="version" type="string">6.1.2  </i>
  <i name="subversion" type="string">22Jul20 (build Nov  4 2022 18:23:20) complex                          parallel </i>
  <i name="platform" type="string">LinuxPGI </i>
  <i name="date" type="string">2024 01 31 </i>
  <i name="time" type="string">00:55:46 </i>
 </generator>
 <incar>
  <i type="int" name="IBRION">    -1</i>
  <i name="EDIFFG">     -0.03000000</i>
  <i type="int" name="NSW">     0</i>
  <i type="int" name="ISIF">     0</i>
  <i type="int" name="ISYM">     0</i>
  <i name="SYMPREC">      0.00000000</i>
  <i name="ENCUT">    350.00000000</i>
  <i type="string" name="LREAL"> Auto</i>
  <i type="logical" name="LWAVE"> F  </i>
  <i type="int" name="NCORE">     4</i>
  <i type="logical" name="LAECHG"> T  </i>
  <i type="string" name="GGA"> RP</i>
 </incar>
 <structure name="primitive_cell" >
  <crystal>
   <varray name="basis" >
    <v>       8.46376883       0.00000000      -0.00000000 </v>
    <v>      -4.23188442       7.32983882       0.00000000 </v>
    <v>       0.00000000       0.00000000      34.55319157 </v>
   </varray>
   <i name="volume">   2143.61301901 </i>
   <varray name="rec_basis" >
    <v>       0.11815067       0.06821432      -0.00000000 </v>
    <v>      -0.00000000       0.13642865       0.00000000 </v>
    <v>       0.00000000       0.00000000       0.02894089 </v>
   </varray>
  </crystal>
  <varray name="positions" >
   <v>       0.11111111       0.22222222       0.33333333 </v>
   <v>       0.00000000       0.00000000       0.46666667 </v>
   <v>       0.22222222       0.11111111       0.40000000 </v>
   <v>       0.11111111       0.22222222       0.53333333 </v>
   <v>       0.32634556       0.00825929       0.66789914 </v>
   <v>       0.22222222       0.11111111       0.60000000 </v>
   <v>       0.11111111       0.55555556       0.33333333 </v>
   <v>       0.00000000       0.33333333       0.46666667 </v>
   <v>       0.22222222       0.44444444       0.40000000 </v>
   <v>       0.11111111       0.55555556       0.53333333 </v>
   <v>       0.33472958       0.33114667       0.66691376 </v>
   <v>       0.22222222       0.44444444       0.60000000 </v>
   <v>       0.11111111       0.88888889       0.33333333 </v>
   <v>       0.00000000       0.66666667       0.46666667 </v>
   <v>       0.22222222       0.77777778       0.40000000 </v>
   <v>       0.11111111       0.88888889       0.53333333 </v>
   <v>       0.34170937       0.65713524       0.66801217 </v>
   <v>       0.22222222       0.77777778       0.60000000 </v>
   <v>       0.44444444       0.22222222       0.33333333 </v>
   <v>       0.33333333       0.00000000       0.46666667 </v>
   <v>       0.55555556       0.11111111       0.40000000 </v>
   <v>       0.44444444       0.22222222       0.53333333 </v>
   <v>       0.68033628       0.00666334       0.66790972 </v>
   <v>       0.55555556       0.11111111       0.60000000 </v>
   <v>       0.44444444       0.55555556       0.33333333 </v>
   <v>       0.33333333       0.33333333       0.46666667 </v>
   <v>       0.55555556       0.44444444       0.40000000 </v>
   <v>       0.44444444       0.55555556       0.53333333 </v>
   <v>       0.66385937       0.33488230       0.66657911 </v>
   <v>       0.55555556       0.44444444       0.60000000 </v>
   <v>       0.44444444       0.88888889       0.33333333 </v>
   <v>       0.33333333       0.66666667       0.46666667 </v>
   <v>       0.55555556       0.77777778       0.40000000 </v>
   <v>       0.44444444       0.88888889       0.53333333 </v>
   <v>       0.66759270       0.66389759       0.66689867 </v>
   <v>       0.55555556       0.77777778       0.60000000 </v>
   <v>       0.77777778       0.22222222       0.33333333 </v>
   <v>       0.66666667       0.00000000       0.46666667 </v>
   <v>       0.88888889       0.11111111       0.40000000 </v>
   <v>       0.77777778       0.22222222       0.53333333 </v>
   <v>       0.99854271       0.00019607       0.66697243 </v>
   <v>       0.88888889       0.11111111       0.60000000 </v>
   <v>       0.77777778       0.55555556       0.33333333 </v>
   <v>       0.66666667       0.33333333       0.46666667 </v>
   <v>       0.88888889       0.44444444       0.40000000 </v>
   <v>       0.77777778       0.55555556       0.53333333 </v>
   <v>       0.99209973       0.31819067       0.66788728 </v>
   <v>       0.88888889       0.44444444       0.60000000 </v>
   <v>       0.77777778       0.88888889       0.33333333 </v>
   <v>       0.66666667       0.66666667       0.46666667 </v>
   <v>       0.88888889       0.77777778       0.40000000 </v>
   <v>       0.77777778       0.88888889       0.53333333 </v>
   <v>       0.99030109       0.67231921       0.66797623 </v>
   <v>       0.88888889       0.77777778       0.60000000 </v>
   <v>       0.44917478       0.89646429       0.69982492 </v>
   <v>       0.10222104       0.54935079       0.69982088 </v>
  </varray>
 </structure>
 <varray name="primitive_index" >
  <v type="int" >        1 </v>
  <v type="int" >        2 </v>
  <v type="int" >        3 </v>
  <v type="int" >        4 </v>
  <v type="int" >        5 </v>
  <v type="int" >        6 </v>
  <v type="int" >        7 </v>
  <v type="int" >        8 </v>
  <v type="int" >        9 </v>
  <v type="int" >       10 </v>
  <v type="int" >       11 </v>
  <v type="int" >       12 </v>
  <v type="int" >       13 </v>
  <v type="int" >       14 </v>
  <v type="int" >       15 </v>
  <v type="int" >       16 </v>
  <v type="int" >       17 </v>
  <v type="int" >       18 </v>
  <v type="int" >       19 </v>
  <v type="int" >       20 </v>
  <v type="int" >       21 </v>
  <v type="int" >       22 </v>
  <v type="int" >       23 </v>
  <v type="int" >       24 </v>
  <v type="int" >       25 </v>
  <v type="int" >       26 </v>
  <v type="int" >       27 </v>
  <v type="int" >       28 </v>
  <v type="int" >       29 </v>
  <v type="int" >       30 </v>
  <v type="int" >       31 </v>
  <v type="int" >       32 </v>
  <v type="int" >       33 </v>
  <v type="int" >       34 </v>
  <v type="int" >       35 </v>
  <v type="int" >       36 </v>
  <v type="int" >       37 </v>
  <v type="int" >       38 </v>
  <v type="int" >       39 </v>
  <v type="int" >       40 </v>
  <v type="int" >       41 </v>
  <v type="int" >       42 </v>
  <v type="int" >       43 </v>
  <v type="int" >       44 </v>
  <v type="int" >       45 </v>
  <v type="int" >       46 </v>
  <v type="int" >       47 </v>
  <v type="int" >       48 </v>
  <v type="int" >       49 </v>
  <v type="int" >       50 </v>
  <v type="int" >       51 </v>
  <v type="int" >       52 </v>
  <v type="int" >       53 </v>
  <v type="int" >       54 </v>
  <v type="int" >       55 </v>
  <v type="int" >       56 </v>
 </varray>
 <kpoints>
  <generation param="Monkhorst-Pack">
   <v type="int" name="divisions">       5        5        1 </v>
   <v name="usershift">      0.00000000       0.00000000       0.00000000 </v>
   <v name="genvec1">      0.20000000       0.00000000       0.00000000 </v>
   <v name="genvec2">      0.00000000       0.20000000       0.00000000 </v>
   <v name="genvec3">      0.00000000       0.00000000       1.00000000 </v>
   <v name="shift">      0.00000000       0.00000000       0.00000000 </v>
  </generation>
  <varray name="kpointlist" >
   <v>       0.00000000       0.00000000       0.00000000 </v>
   <v>       0.20000000       0.00000000       0.00000000 </v>
   <v>       0.20000000      -0.20000000       0.00000000 </v>
   <v>       0.00000000      -0.20000000       0.00000000 </v>
   <v>       0.40000000       0.00000000       0.00000000 </v>
   <v>       0.40000000      -0.40000000       0.00000000 </v>
   <v>       0.00000000      -0.40000000       0.00000000 </v>
   <v>       0.20000000       0.20000000       0.00000000 </v>
   <v>       0.40000000      -0.20000000       0.00000000 </v>
   <v>       0.20000000      -0.40000000       0.00000000 </v>
   <v>       0.40000000       0.20000000       0.00000000 </v>
   <v>      -0.40000000      -0.40000000       0.00000000 </v>
   <v>       0.20000000       0.40000000       0.00000000 </v>
  </varray>
  <varray name="weights" >
   <v>       0.04000000 </v>
   <v>       0.08000000 </v>
   <v>       0.08000000 </v>
   <v>       0.08000000 </v>
   <v>       0.08000000 </v>
   <v>       0.08000000 </v>
   <v>       0.08000000 </v>
   <v>       0.08000000 </v>
   <v>       0.08000000 </v>
   <v>       0.08000000 </v>
   <v>       0.08000000 </v>
   <v>       0.08000000 </v>
   <v>       0.08000000 </v>
  </varray>
 </kpoints>
 <parameters>
  <separator name="general" >
   <i type="string" name="SYSTEM">unknown system</i>
   <i type="logical" name="LCOMPAT"> F  </i>
  </separator>
  <separator name="electronic" >
   <i type="string" name="PREC">normal</i>
   <i name="ENMAX">    350.00000000</i>
   <i name="ENAUG">    605.39200000</i>
   <i name="EDIFF">      0.00010000</i>
   <i type="int" name="IALGO">    38</i>
   <i type="int" name="IWAVPR">    10</i>
   <i type="int" name="NBANDS">   332</i>
   <i type="int" name="NBANDSLOW">    -1</i>
   <i type="int" name="NBANDSHIGH">    -1</i>
   <i name="NELECT">    552.00000000</i>
   <i type="int" name="TURBO">     0</i>
   <i type="int" name="IRESTART">     0</i>
   <i type="int" name="NREBOOT">     0</i>
   <i type="int" name="NMIN">     0</i>
   <i name="EREF">      0.00000000</i>
   <separator name="electronic smearing" >
    <i type="int" name="ISMEAR">     1</i>
    <i name="SIGMA">      0.20000000</i>
    <i name="KSPACING">      0.50000000</i>
    <i type="logical" name="KGAMMA"> T  </i>
    <i type="logical" name="KBLOWUP"> T  </i>
   </separator>
   <separator name="electronic projectors" >
    <i type="logical" name="LREAL"> T  </i>
    <v name="ROPT">     -0.00050000     -0.00050000</v>
    <i type="int" name="LMAXPAW">  -100</i>
    <i type="int" name="LMAXMIX">     2</i>
    <i type="logical" name="NLSPLINE"> F  </i>
   </separator>
   <separator name="electronic startup" >
    <i type="int" name="ISTART">     0</i>
    <i type="int" name="ICHARG">     2</i>
    <i type="int" name="INIWAV">     1</i>
   </separator>
   <separator name="electronic spin" >
    <i type="int" name="ISPIN">     1</i>
    <i type="logical" name="LNONCOLLINEAR"> F  </i>
    <v name="MAGMOM">      1.00000000      1.00000000      1.00000000      1.00000000      1.00000000      1.00000000      1.00000000      1.00000000      1.00000000      1.00000000      1.00000000      1.00000000      1.00000000      1.00000000      1.00000000      1.00000000      1.00000000      1.00000000      1.00000000      1.00000000
      1.00000000      1.00000000      1.00000000      1.00000000      1.00000000      1.00000000      1.00000000      1.00000000      1.00000000      1.00000000      1.00000000      1.00000000      1.00000000      1.00000000      1.00000000      1.00000000      1.00000000      1.00000000      1.00000000      1.00000000
      1.00000000      1.00000000      1.00000000      1.00000000      1.00000000      1.00000000      1.00000000      1.00000000      1.00000000      1.00000000      1.00000000      1.00000000      1.00000000      1.00000000      1.00000000      1.00000000</v>
    <i name="NUPDOWN">     -1.00000000</i>
    <i type="logical" name="LSORBIT"> F  </i>
    <v name="SAXIS">      0.00000000      0.00000000      1.00000000</v>
    <i type="logical" name="LSPIRAL"> F  </i>
    <v name="QSPIRAL">      0.00000000      0.00000000      0.00000000</v>
    <i type="logical" name="LZEROZ"> F  </i>
   </separator>
   <separator name="electronic exchange-correlation" >
    <i type="logical" name="LASPH"> F  </i>
    <i type="logical" name="LMETAGGA"> F  </i>
   </separator>
   <separator name="electronic convergence" >
    <i type="int" name="NELM">    60</i>
    <i type="int" name="NELMDL">     0</i>
    <i type="int" name="NELMIN">     2</i>
    <i name="ENINI">    350.00000000</i>
    <separator name="electronic convergence detail" >
     <i type="logical" name="LDIAG"> T  </i>
     <i type="logical" name="LSUBROT"> F  </i>
     <i name="WEIMIN">      0.00000000</i>
     <i name="EBREAK">      0.00000008</i>
     <i name="DEPER">      0.30000000</i>
     <i type="int" name="NRMM">     4</i>
     <i name="TIME">      0.40000000</i>
    </separator>
   </separator>
   <separator name="electronic mixer" >
    <i name="AMIX">      0.40000000</i>
    <i name="BMIX">      1.00000000</i>
    <i name="AMIN">      0.10000000</i>
    <i name="AMIX_MAG">      1.60000000</i>
    <i name="BMIX_MAG">      1.00000000</i>
    <separator name="electronic mixer details" >
     <i type="int" name="IMIX">     4</i>
     <i type="logical" name="MIXFIRST"> F  </i>
     <i type="int" name="MAXMIX">   -45</i>
     <i name="WC">    100.00000000</i>
     <i type="int" name="INIMIX">     1</i>
     <i type="int" name="MIXPRE">     1</i>
     <i type="int" name="MREMOVE">     5</i>
    </separator>
   </separator>
   <separator name="electronic dipolcorrection" >
    <i type="logical" name="LDIPOL"> F  </i>
    <i type="logical" name="LMONO"> F  </i>
    <i type="int" name="IDIPOL">     0</i>
    <i name="EPSILON">      1.00000000</i>
    <v name="DIPOL">   -100.00000000   -100.00000000   -100.00000000</v>
    <i name="EFIELD">      0.00000000</i>
   </separator>
  </separator>
  <separator name="grids" >
   <i type="int" name="NGX">    40</i>
   <i type="int" name="NGY">    40</i>
   <i type="int" name="NGZ">   160</i>
   <i type="int" name="NGXF">    80</i>
   <i type="int" name="NGYF">    80</i>
   <i type="int" name="NGZF">   320</i>
   <i type="logical" name="ADDGRID"> F  </i>
  </separator>
  <separator name="ionic" >
   <i type="int" name="NSW">     0</i>
   <i type="int" name="IBRION">    -1</i>
   <i type="int" name="MDALGO">     0</i>
   <i type="int" name="ISIF">     0</i>
   <i name="PSTRESS">      0.00000000</i>
   <i name="EDIFFG">     -0.03000000</i>
   <i type="int" name="NFREE">     0</i>
   <i name="POTIM">      0.50000000</i>
   <i name="SMASS">     -3.00000000</i>
   <i name="SCALEE">      1.00000000</i>
  </separator>
  <separator name="ionic md" >
   <i name="TEBEG">      0.00010000</i>
   <i name="TEEND">      0.00010000</i>
   <i type="int" name="NBLOCK">     1</i>
   <i type="int" name="KBLOCK">     1</i>
   <i type="int" name="NPACO">   256</i>
   <i name="APACO">     16.00000000</i>
  </separator>
  <separator name="symmetry" >
   <i type="int" name="ISYM">     0</i>
   <i name="SYMPREC">      0.00000000</i>
  </separator>
  <separator name="dos" >
   <i type="int" name="LORBIT">     0</i>
   <v name="RWIGS">     -1.00000000     -1.00000000</v>
   <i type="int" name="NEDOS">   301</i>
   <i name="EMIN">     10.00000000</i>
   <i name="EMAX">    -10.00000000</i>
   <i name="EFERMI">      0.00000000</i>
  </separator>
  <separator name="writing" >
   <i type="int" name="NWRITE">     2</i>
   <i type="logical" name="LWAVE"> F  </i>
   <i type="logical" name="LDOWNSAMPLE"> F  </i>
   <i type="logical" name="LCHARG"> T  </i>
   <i type="logical" name="LPARD"> F  </i>
   <i type="logical" name="LVTOT"> F  </i>
   <i type="logical" name="LVHAR"> F  </i>
   <i type="logical" name="LELF"> F  </i>
   <i type="logical" name="LOPTICS"> F  </i>
   <v name="STM">      0.00000000      0.00000000      0.00000000      0.00000000      0.00000000      0.00000000      0.00000000</v>
  </separator>
  <separator name="performance" >
   <i type="int" name="NPAR">     2</i>
   <i type="int" name="NSIM">     4</i>
   <i type="int" name="NBLK">    -1</i>
   <i type="logical" name="LPLANE"> T  </i>
   <i type="logical" name="LSCALAPACK"> T  </i>
   <i type="logical" name="LSCAAWARE"> F  </i>
   <i type="logical" name="LSCALU"> F  </i>
   <i type="logical" name="LASYNC"> F  </i>
   <i type="logical" name="LORBITALREAL"> F  </i>
  </separator>
  <separator name="miscellaneous" >
   <i type="int" name="IDIOT">     3</i>
   <i type="int" name="PHON_NSTRUCT">    -1</i>
   <i type="logical" name="LMUSIC"> F  </i>
   <v name="POMASS">    195.08000000     16.00000000</v>
   <v name="DARWINR">      0.00000000      0.00000000</v>
   <v name="DARWINV">      1.00000000      1.00000000</v>
   <i type="logical" name="LCORR"> T  </i>
  </separator>
  <i type="logical" name="GGA_COMPAT"> T  </i>
  <i type="logical" name="LBERRY"> F  </i>
  <i type="int" name="ICORELEVEL">     0</i>
  <i type="logical" name="LDAU"> F  </i>
  <i type="int" name="I_CONSTRAINED_M">     0</i>
  <separator name="electronic exchange-correlation" >
   <i type="string" name="GGA">RP</i>
   <i type="int" name="VOSKOWN">     0</i>
   <i type="logical" name="LHFCALC"> F  </i>
   <i type="string" name="PRECFOCK"></i>
   <i type="logical" name="LSYMGRAD"> F  </i>
   <i type="logical" name="LHFONE"> F  </i>
   <i type="logical" name="LRHFCALC"> F  </i>
   <i type="logical" name="LTHOMAS"> F  </i>
   <i type="logical" name="LMODELHF"> F  </i>
   <i type="logical" name="LFOCKACE"> F  </i>
   <i name="ENCUT4O">     -1.00000000</i>
   <i type="int" name="EXXOEP">     0</i>
   <i type="int" name="FOURORBIT">     0</i>
   <i name="AEXX">      0.00000000</i>
   <i name="HFALPHA">      0.00000000</i>
   <i name="MCALPHA">      0.00000000</i>
   <i name="ALDAX">      1.00000000</i>
   <i name="AGGAX">      1.00000000</i>
   <i name="ALDAC">      1.00000000</i>
   <i name="AGGAC">      1.00000000</i>
   <i type="int" name="NKREDX">     1</i>
   <i type="int" name="NKREDY">     1</i>
   <i type="int" name="NKREDZ">     1</i>
   <i type="logical" name="SHIFTRED"> F  </i>
   <i type="logical" name="ODDONLY"> F  </i>
   <i type="logical" name="EVENONLY"> F  </i>
   <i type="int" name="LMAXFOCK">     0</i>
   <i type="int" name="NMAXFOCKAE">     0</i>
   <i type="logical" name="LFOCKAEDFT"> F  </i>
   <i name="HFSCREEN">      0.00000000</i>
   <i name="HFSCREENC">      0.00000000</i>
   <i type="int" name="NBANDSGWLOW">     0</i>
  </separator>
  <separator name="vdW DFT" >
   <i type="logical" name="LUSE_VDW"> F  </i>
   <i name="Zab_VDW">     -0.84910000</i>
   <i name="PARAM1">      0.12340000</i>
   <i name="PARAM2">      1.00000000</i>
   <i name="PARAM3">      0.00000000</i>
  </separator>
  <separator name="model GW" >
   <i type="int" name="MODEL_GW">     0</i>
   <i name="MODEL_EPS0">     22.96728235</i>
   <i name="MODEL_ALPHA">      1.00000000</i>
  </separator>
  <separator name="linear response parameters" >
   <i type="logical" name="LEPSILON"> F  </i>
   <i type="logical" name="LRPA"> F  </i>
   <i type="logical" name="LNABLA"> F  </i>
   <i type="logical" name="LVEL"> F  </i>
   <i type="int" name="KINTER">     0</i>
   <i name="CSHIFT">      0.10000000</i>
   <i name="OMEGAMAX">     -1.00000000</i>
   <i name="DEG_THRESHOLD">      0.00200000</i>
   <i name="RTIME">     -0.10000000</i>
   <i name="WPLASMAI">      0.00000000</i>
   <v name="DFIELD">      0.00000000      0.00000000      0.00000000</v>
   <v name="WPLASMA">      0.00000000      0.00000000      0.00000000      0.00000000      0.00000000      0.00000000      0.00000000      0.00000000      0.00000000</v>
  </separator>
  <separator name="orbital magnetization" >
   <i type="logical" name="NUCIND"> F  </i>
   <v name="MAGPOS">      0.00000000      0.00000000      0.00000000</v>
   <i type="logical" name="LNICSALL"> T  </i>
   <i type="logical" name="ORBITALMAG"> F  </i>
   <i type="logical" name="LMAGBLOCH"> F  </i>
   <i type="logical" name="LCHIMAG"> F  </i>
   <i type="logical" name="LGAUGE"> T  </i>
   <i type="int" name="MAGATOM">     0</i>
   <v name="MAGDIPOL">      0.00000000      0.00000000      0.00000000</v>
   <v name="AVECCONST">      0.00000000      0.00000000      0.00000000</v>
  </separator>
  <separator name="response functions" >
   <i type="logical" name="LFINITE_TEMPERATURE"> F  </i>
   <i type="logical" name="LADDER"> F  </i>
   <i type="logical" name="LRPAFORCE"> F  </i>
   <i type="logical" name="LFXC"> F  </i>
   <i type="logical" name="LHARTREE"> T  </i>
   <i type="int" name="IBSE">     0</i>
   <v type="int" name="KPOINT">    -1     0     0     0</v>
   <i type="logical" name="LTCTC"> F  </i>
   <i type="logical" name="LTCTE"> F  </i>
   <i type="logical" name="LTETE"> F  </i>
   <i type="logical" name="LTRIPLET"> F  </i>
   <i type="logical" name="LFXCEPS"> F  </i>
   <i type="logical" name="LFXHEG"> F  </i>
   <i type="int" name="NATURALO">     2</i>
   <i type="logical" name="LHOLEGF"> F  </i>
   <i type="logical" name="L2ORDER"> F  </i>
   <i type="logical" name="LDMP1"> F  </i>
   <i type="logical" name="LMP2LT"> F  </i>
   <i type="logical" name="LSMP2LT"> F  </i>
   <i type="logical" name="LGWLF"> F  </i>
   <i name="ENCUTGW">     -2.00000000</i>
   <i name="ENCUTGWSOFT">     -2.00000000</i>
   <i name="ENCUTLF">     -1.00000000</i>
   <i type="logical" name="LESF_SPLINES"> F  </i>
   <i type="int" name="LMAXMP2">    -1</i>
   <i name="SCISSOR">      0.00000000</i>
   <i type="int" name="NOMEGA">     0</i>
   <i type="int" name="NOMEGAR">     0</i>
   <i type="int" name="NBANDSGW">    -1</i>
   <i type="int" name="NBANDSO">    -1</i>
   <i type="int" name="NBANDSV">    -1</i>
   <i type="int" name="NELM">     1</i>
   <i type="int" name="NELMHF">     1</i>
   <i type="int" name="DIM">     3</i>
   <i type="int" name="IESPILON">     4</i>
   <i type="int" name="ANTIRES">     0</i>
   <i name="OMEGAMAX">    -30.00000000</i>
   <i name="OMEGAMIN">    -30.00000000</i>
   <i name="OMEGATL">   -200.00000000</i>
   <i type="int" name="OMEGAGRID">     0</i>
   <i name="CSHIFT">     -0.10000000</i>
   <i type="logical" name="LSELFENERGY"> F  </i>
   <i type="logical" name="LSPECTRAL"> F  </i>
   <i type="logical" name="LSPECTRALGW"> F  </i>
   <i type="logical" name="LSINGLES"> F  </i>
   <i type="logical" name="LFERMIGW"> F  </i>
   <i type="logical" name="ODDONLYGW"> F  </i>
   <i type="logical" name="EVENONLYGW"> F  </i>
   <i type="int" name="NKREDLFX">     1</i>
   <i type="int" name="NKREDLFY">     1</i>
   <i type="int" name="NKREDLFZ">     1</i>
   <i type="int" name="MAXMEM">  2800</i>
   <i type="int" name="TELESCOPE">     0</i>
   <i type="int" name="NTAUPAR">    -1</i>
   <i type="int" name="NOMEGAPAR">    -1</i>
   <i name="LAMBDA">      1.00000000</i>
  </separator>
  <separator name="External order field" >
   <i name="OFIELD_KAPPA">      0.00000000</i>
   <v name="OFIELD_K">      0.00000000      0.00000000      0.00000000</v>
   <i name="OFIELD_Q6_NEAR">      0.00000000</i>
   <i name="OFIELD_Q6_FAR">      0.00000000</i>
   <i name="OFIELD_A">      0.00000000</i>
  </separator>
 </parameters>
 <atominfo>
  <atoms>      56 </atoms>
  <types>       2 </types>
  <array name="atoms" >
   <dimension dim="1">ion</dimension>
   <field type="string">element</field>
   <field type="int">atomtype</field>
   <set>
    <rc><c>Pt</c><c>   1</c></rc>
    <rc><c>Pt</c><c>   1</c></rc>
    <rc><c>Pt</c><c>   1</c></rc>
    <rc><c>Pt</c><c>   1</c></rc>
    <rc><c>Pt</c><c>   1</c></rc>
    <rc><c>Pt</c><c>   1</c></rc>
    <rc><c>Pt</c><c>   1</c></rc>
    <rc><c>Pt</c><c>   1</c></rc>
    <rc><c>Pt</c><c>   1</c></rc>
    <rc><c>Pt</c><c>   1</c></rc>
    <rc><c>Pt</c><c>   1</c></rc>
    <rc><c>Pt</c><c>   1</c></rc>
    <rc><c>Pt</c><c>   1</c></rc>
    <rc><c>Pt</c><c>   1</c></rc>
    <rc><c>Pt</c><c>   1</c></rc>
    <rc><c>Pt</c><c>   1</c></rc>
    <rc><c>Pt</c><c>   1</c></rc>
    <rc><c>Pt</c><c>   1</c></rc>
    <rc><c>Pt</c><c>   1</c></rc>
    <rc><c>Pt</c><c>   1</c></rc>
    <rc><c>Pt</c><c>   1</c></rc>
    <rc><c>Pt</c><c>   1</c></rc>
    <rc><c>Pt</c><c>   1</c></rc>
    <rc><c>Pt</c><c>   1</c></rc>
    <rc><c>Pt</c><c>   1</c></rc>
    <rc><c>Pt</c><c>   1</c></rc>
    <rc><c>Pt</c><c>   1</c></rc>
    <rc><c>Pt</c><c>   1</c></rc>
    <rc><c>Pt</c><c>   1</c></rc>
    <rc><c>Pt</c><c>   1</c></rc>
    <rc><c>Pt</c><c>   1</c></rc>
    <rc><c>Pt</c><c>   1</c></rc>
    <rc><c>Pt</c><c>   1</c></rc>
    <rc><c>Pt</c><c>   1</c></rc>
    <rc><c>Pt</c><c>   1</c></rc>
    <rc><c>Pt</c><c>   1</c></rc>
    <rc><c>Pt</c><c>   1</c></rc>
    <rc><c>Pt</c><c>   1</c></rc>
    <rc><c>Pt</c><c>   1</c></rc>
    <rc><c>Pt</c><c>   1</c></rc>
    <rc><c>Pt</c><c>   1</c></rc>
    <rc><c>Pt</c><c>   1</c></rc>
    <rc><c>Pt</c><c>   1</c></rc>
    <rc><c>Pt</c><c>   1</c></rc>
    <rc><c>Pt</c><c>   1</c></rc>
    <rc><c>Pt</c><c>   1</c></rc>
    <rc><c>Pt</c><c>   1</c></rc>
    <rc><c>Pt</c><c>   1</c></rc>
    <rc><c>Pt</c><c>   1</c></rc>
    <rc><c>Pt</c><c>   1</c></rc>
    <rc><c>Pt</c><c>   1</c></rc>
    <rc><c>Pt</c><c>   1</c></rc>
    <rc><c>Pt</c><c>   1</c></rc>
    <rc><c>Pt</c><c>   1</c></rc>
    <rc><c>O </c><c>   2</c></rc>
    <rc><c>O </c><c>   2</c></rc>
   </set>
  </array>
  <array name="atomtypes" >
   <dimension dim="1">type</dimension>
   <field type="int">atomspertype</field>
   <field type="string">element</field>
   <field>mass</field>
   <field>valence</field>
   <field type="string">pseudopotential</field>
   <set>
    <rc><c>  54</c><c>Pt</c><c>    195.08000000</c><c>     10.00000000</c><c>  PAW_PBE Pt 04Feb2005                  </c></rc>
    <rc><c>   2</c><c>O </c><c>     16.00000000</c><c>      6.00000000</c><c>  PAW_PBE O 08Apr2002                   </c></rc>
   </set>
  </array>
 </atominfo>
 <structure name="initialpos" >
  <crystal>
   <varray name="basis" >
    <v>       8.46376883       0.00000000      -0.00000000 </v>
    <v>      -4.23188442       7.32983882       0.00000000 </v>
    <v>       0.00000000       0.00000000      34.55319157 </v>
   </varray>
   <i name="volume">   2143.61301901 </i>
   <varray name="rec_basis" >
    <v>       0.11815067       0.06821432      -0.00000000 </v>
    <v>      -0.00000000       0.13642865       0.00000000 </v>
    <v>       0.00000000       0.00000000       0.02894089 </v>
   </varray>
  </crystal>
  <varray name="positions" >
   <v>       0.11111111       0.22222222       0.33333333 </v>
   <v>       0.00000000       0.00000000       0.46666667 </v>
   <v>       0.22222222       0.11111111       0.40000000 </v>
   <v>       0.11111111       0.22222222       0.53333333 </v>
   <v>       0.32634556       0.00825929       0.66789914 </v>
   <v>       0.22222222       0.11111111       0.60000000 </v>
   <v>       0.11111111       0.55555556       0.33333333 </v>
   <v>       0.00000000       0.33333333       0.46666667 </v>
   <v>       0.22222222       0.44444444       0.40000000 </v>
   <v>       0.11111111       0.55555556       0.53333333 </v>
   <v>       0.33472958       0.33114667       0.66691376 </v>
   <v>       0.22222222       0.44444444       0.60000000 </v>
   <v>       0.11111111       0.88888889       0.33333333 </v>
   <v>       0.00000000       0.66666667       0.46666667 </v>
   <v>       0.22222222       0.77777778       0.40000000 </v>
   <v>       0.11111111       0.88888889       0.53333333 </v>
   <v>       0.34170937       0.65713524       0.66801217 </v>
   <v>       0.22222222       0.77777778       0.60000000 </v>
   <v>       0.44444444       0.22222222       0.33333333 </v>
   <v>       0.33333333       0.00000000       0.46666667 </v>
   <v>       0.55555556       0.11111111       0.40000000 </v>
   <v>       0.44444444       0.22222222       0.53333333 </v>
   <v>       0.68033628       0.00666334       0.66790972 </v>
   <v>       0.55555556       0.11111111       0.60000000 </v>
   <v>       0.44444444       0.55555556       0.33333333 </v>
   <v>       0.33333333       0.33333333       0.46666667 </v>
   <v>       0.55555556       0.44444444       0.40000000 </v>
   <v>       0.44444444       0.55555556       0.53333333 </v>
   <v>       0.66385937       0.33488230       0.66657911 </v>
   <v>       0.55555556       0.44444444       0.60000000 </v>
   <v>       0.44444444       0.88888889       0.33333333 </v>
   <v>       0.33333333       0.66666667       0.46666667 </v>
   <v>       0.55555556       0.77777778       0.40000000 </v>
   <v>       0.44444444       0.88888889       0.53333333 </v>
   <v>       0.66759270       0.66389759       0.66689867 </v>
   <v>       0.55555556       0.77777778       0.60000000 </v>
   <v>       0.77777778       0.22222222       0.33333333 </v>
   <v>       0.66666667       0.00000000       0.46666667 </v>
   <v>       0.88888889       0.11111111       0.40000000 </v>
   <v>       0.77777778       0.22222222       0.53333333 </v>
   <v>       0.99854271       0.00019607       0.66697243 </v>
   <v>       0.88888889       0.11111111       0.60000000 </v>
   <v>       0.77777778       0.55555556       0.33333333 </v>
   <v>       0.66666667       0.33333333       0.46666667 </v>
   <v>       0.88888889       0.44444444       0.40000000 </v>
   <v>       0.77777778       0.55555556       0.53333333 </v>
   <v>       0.99209973       0.31819067       0.66788728 </v>
   <v>       0.88888889       0.44444444       0.60000000 </v>
   <v>       0.77777778       0.88888889       0.33333333 </v>
   <v>       0.66666667       0.66666667       0.46666667 </v>
   <v>       0.88888889       0.77777778       0.40000000 </v>
   <v>       0.77777778       0.88888889       0.53333333 </v>
   <v>       0.99030109       0.67231921       0.66797623 </v>
   <v>       0.88888889       0.77777778       0.60000000 </v>
   <v>       0.44917478       0.89646429       0.69982492 </v>
   <v>       0.10222104       0.54935079       0.69982088 </v>
  </varray>
  <varray name="selective"  type="logical" >
   <v type="logical" >  F  F  F </v>
   <v type="logical" >  F  F  F </v>
   <v type="logical" >  F  F  F </v>
   <v type="logical" >  F  F  F </v>
   <v type="logical" >  T  T  T </v>
   <v type="logical" >  F  F  F </v>
   <v type="logical" >  F  F  F </v>
   <v type="logical" >  F  F  F </v>
   <v type="logical" >  F  F  F </v>
   <v type="logical" >  F  F  F </v>
   <v type="logical" >  T  T  T </v>
   <v type="logical" >  F  F  F </v>
   <v type="logical" >  F  F  F </v>
   <v type="logical" >  F  F  F </v>
   <v type="logical" >  F  F  F </v>
   <v type="logical" >  F  F  F </v>
   <v type="logical" >  T  T  T </v>
   <v type="logical" >  F  F  F </v>
   <v type="logical" >  F  F  F </v>
   <v type="logical" >  F  F  F </v>
   <v type="logical" >  F  F  F </v>
   <v type="logical" >  F  F  F </v>
   <v type="logical" >  T  T  T </v>
   <v type="logical" >  F  F  F </v>
   <v type="logical" >  F  F  F </v>
   <v type="logical" >  F  F  F </v>
   <v type="logical" >  F  F  F </v>
   <v type="logical" >  F  F  F </v>
   <v type="logical" >  T  T  T </v>
   <v type="logical" >  F  F  F </v>
   <v type="logical" >  F  F  F </v>
   <v type="logical" >  F  F  F </v>
   <v type="logical" >  F  F  F </v>
   <v type="logical" >  F  F  F </v>
   <v type="logical" >  T  T  T </v>
   <v type="logical" >  F  F  F </v>
   <v type="logical" >  F  F  F </v>
   <v type="logical" >  F  F  F </v>
   <v type="logical" >  F  F  F </v>
   <v type="logical" >  F  F  F </v>
   <v type="logical" >  T  T  T </v>
   <v type="logical" >  F  F  F </v>
   <v type="logical" >  F  F  F </v>
   <v type="logical" >  F  F  F </v>
   <v type="logical" >  F  F  F </v>
   <v type="logical" >  F  F  F </v>
   <v type="logical" >  T  T  T </v>
   <v type="logical" >  F  F  F </v>
   <v type="logical" >  F  F  F </v>
   <v type="logical" >  F  F  F </v>
   <v type="logical" >  F  F  F </v>
   <v type="logical" >  F  F  F </v>
   <v type="logical" >  T  T  T </v>
   <v type="logical" >  F  F  F </v>
   <v type="logical" >  T  T  T </v>
   <v type="logical" >  T  T  T </v>
  </varray>
  <nose>
   <v>      -3.00000000       0.00000000       0.00010000       0.00010000 </v>
  </nose>
 </structure>
 <calculation>
  <scstep>
   <time name="dav">   53.50   53.55</time>
   <time name="total">   53.72   53.77</time>
   <energy>
    <i name="alphaZ">   1333.75959993 </i>
    <i name="ewald"> 410006.65106125 </i>
    <i name="hartreedc">-452635.39546093 </i>
    <i name="XCdc">    223.16208799 </i>
    <i name="pawpsdc">  38315.92159543 </i>
    <i name="pawaedc"> -36739.60630374 </i>
    <i name="eentropy">     -0.00376617 </i>
    <i name="bandstr">   2582.53812529 </i>
    <i name="atom">  40192.62307366 </i>
    <i name="e_fr_energy">   3279.65001272 </i>
    <i name="e_wo_entrp">   3279.65377889 </i>
    <i name="e_0_energy">   3279.65126811 </i>
   </energy>
  </scstep>
  <scstep>
   <time name="dav">   60.75   60.83</time>
   <time name="total">   60.75   60.84</time>
   <energy>
    <i name="e_fr_energy">    -59.97351493 </i>
    <i name="e_wo_entrp">    -59.96315486 </i>
    <i name="e_0_energy">    -59.97006157 </i>
   </energy>
  </scstep>
  <scstep>
   <time name="dav">   59.75   59.81</time>
   <time name="total">   59.76   59.83</time>
   <energy>
    <i name="e_fr_energy">   -305.67536999 </i>
    <i name="e_wo_entrp">   -305.58044727 </i>
    <i name="e_0_energy">   -305.64372908 </i>
   </energy>
  </scstep>
  <scstep>
   <time name="dav">   63.89   63.95</time>
   <time name="total">   63.90   63.96</time>
   <energy>
    <i name="e_fr_energy">   -317.04521846 </i>
    <i name="e_wo_entrp">   -316.94651601 </i>
    <i name="e_0_energy">   -317.01231765 </i>
   </energy>
  </scstep>
  <scstep>
   <time name="dav">   63.45   63.51</time>
   <time name="total">   66.64   66.70</time>
   <energy>
    <i name="e_fr_energy">   -317.35097275 </i>
    <i name="e_wo_entrp">   -317.25240055 </i>
    <i name="e_0_energy">   -317.31811535 </i>
   </energy>
  </scstep>
  <scstep>
   <time name="dav">   58.08   58.13</time>
   <time name="total">   61.45   61.50</time>
   <energy>
    <i name="e_fr_energy">   -338.55655168 </i>
    <i name="e_wo_entrp">   -338.50884736 </i>
    <i name="e_0_energy">   -338.54065024 </i>
   </energy>
  </scstep>
  <scstep>
   <time name="dav">   73.10   73.17</time>
   <time name="total">   76.51   76.57</time>
   <energy>
    <i name="e_fr_energy">   -499.36957860 </i>
    <i name="e_wo_entrp">   -499.34724759 </i>
    <i name="e_0_energy">   -499.36213493 </i>
   </energy>
  </scstep>
  <scstep>
   <time name="dav">   72.81   72.88</time>
   <time name="total">   76.20   76.28</time>
   <energy>
    <i name="e_fr_energy">   -464.78060210 </i>
    <i name="e_wo_entrp">   -464.86265265 </i>
    <i name="e_0_energy">   -464.80795228 </i>
   </energy>
  </scstep>
  <scstep>
   <time name="dav">   64.30   64.36</time>
   <time name="total">   67.78   67.84</time>
   <energy>
    <i name="e_fr_energy">   -358.16439695 </i>
    <i name="e_wo_entrp">   -358.20950146 </i>
    <i name="e_0_energy">   -358.17943179 </i>
   </energy>
  </scstep>
  <scstep>
   <time name="dav">   57.46   57.51</time>
   <time name="total">   60.84   60.90</time>
   <energy>
    <i name="e_fr_energy">   -386.27533000 </i>
    <i name="e_wo_entrp">   -386.29826777 </i>
    <i name="e_0_energy">   -386.28297593 </i>
   </energy>
  </scstep>
  <scstep>
   <time name="dav">   56.94   56.99</time>
   <time name="total">   60.31   60.36</time>
   <energy>
    <i name="e_fr_energy">   -311.35220852 </i>
    <i name="e_wo_entrp">   -311.36533173 </i>
    <i name="e_0_energy">   -311.35658292 </i>
   </energy>
  </scstep>
  <scstep>
   <time name="dav">   57.05   57.10</time>
   <time name="total">   60.41   60.46</time>
   <energy>
    <i name="e_fr_energy">   -301.78284946 </i>
    <i name="e_wo_entrp">   -301.73453182 </i>
    <i name="e_0_energy">   -301.76674358 </i>
   </energy>
  </scstep>
  <scstep>
   <time name="dav">   56.49   56.53</time>
   <time name="total">   59.91   59.97</time>
   <energy>
    <i name="e_fr_energy">   -298.02841464 </i>
    <i name="e_wo_entrp">   -297.96739005 </i>
    <i name="e_0_energy">   -298.00807311 </i>
   </energy>
  </scstep>
  <scstep>
   <time name="dav">   56.06   56.11</time>
   <time name="total">   59.35   59.40</time>
   <energy>
    <i name="e_fr_energy">   -296.78647547 </i>
    <i name="e_wo_entrp">   -296.69677252 </i>
    <i name="e_0_energy">   -296.75657449 </i>
   </energy>
  </scstep>
  <scstep>
   <time name="dav">   56.64   56.69</time>
   <time name="total">   60.01   60.06</time>
   <energy>
    <i name="e_fr_energy">   -296.80112843 </i>
    <i name="e_wo_entrp">   -296.70080131 </i>
    <i name="e_0_energy">   -296.76768606 </i>
   </energy>
  </scstep>
  <scstep>
   <time name="dav">   56.09   56.14</time>
   <time name="total">   59.50   59.55</time>
   <energy>
    <i name="e_fr_energy">   -296.63179288 </i>
    <i name="e_wo_entrp">   -296.49764140 </i>
    <i name="e_0_energy">   -296.58707572 </i>
   </energy>
  </scstep>
  <scstep>
   <time name="dav">   55.01   55.06</time>
   <time name="total">   58.45   58.51</time>
   <energy>
    <i name="e_fr_energy">   -296.62792040 </i>
    <i name="e_wo_entrp">   -296.49392567 </i>
    <i name="e_0_energy">   -296.58325549 </i>
   </energy>
  </scstep>
  <scstep>
   <time name="dav">   55.27   55.32</time>
   <time name="total">   58.72   58.76</time>
   <energy>
    <i name="e_fr_energy">   -296.45615298 </i>
    <i name="e_wo_entrp">   -296.34134737 </i>
    <i name="e_0_energy">   -296.41788444 </i>
   </energy>
  </scstep>
  <scstep>
   <time name="dav">   55.53   55.57</time>
   <time name="total">   58.93   58.98</time>
   <energy>
    <i name="e_fr_energy">   -296.26914415 </i>
    <i name="e_wo_entrp">   -296.16672030 </i>
    <i name="e_0_energy">   -296.23500287 </i>
   </energy>
  </scstep>
  <scstep>
   <time name="dav">   55.10   55.15</time>
   <time name="total">   58.54   58.58</time>
   <energy>
    <i name="e_fr_energy">   -296.19634708 </i>
    <i name="e_wo_entrp">   -296.09276403 </i>
    <i name="e_0_energy">   -296.16181940 </i>
   </energy>
  </scstep>
  <scstep>
   <time name="dav">   57.17   57.22</time>
   <time name="total">   60.53   60.59</time>
   <energy>
    <i name="e_fr_energy">   -296.19771912 </i>
    <i name="e_wo_entrp">   -296.09003449 </i>
    <i name="e_0_energy">   -296.16182424 </i>
   </energy>
  </scstep>
  <scstep>
   <time name="dav">   56.54   56.59</time>
   <time name="total">   59.98   60.03</time>
   <energy>
    <i name="e_fr_energy">   -296.18422737 </i>
    <i name="e_wo_entrp">   -296.07479643 </i>
    <i name="e_0_energy">   -296.14775039 </i>
   </energy>
  </scstep>
  <scstep>
   <time name="dav">   56.79   56.84</time>
   <time name="total">   60.25   60.30</time>
   <energy>
    <i name="e_fr_energy">   -296.19189823 </i>
    <i name="e_wo_entrp">   -296.08581804 </i>
    <i name="e_0_energy">   -296.15653816 </i>
   </energy>
  </scstep>
  <scstep>
   <time name="dav">   56.39   56.44</time>
   <time name="total">   59.78   59.83</time>
   <energy>
    <i name="e_fr_energy">   -296.18536897 </i>
    <i name="e_wo_entrp">   -296.08285198 </i>
    <i name="e_0_energy">   -296.15119664 </i>
   </energy>
  </scstep>
  <scstep>
   <time name="dav">   56.25   56.30</time>
   <time name="total">   59.86   59.91</time>
   <energy>
    <i name="e_fr_energy">   -296.16823788 </i>
    <i name="e_wo_entrp">   -296.06651215 </i>
    <i name="e_0_energy">   -296.13432930 </i>
   </energy>
  </scstep>
  <scstep>
   <time name="dav">   56.46   56.51</time>
   <time name="total">   59.77   59.82</time>
   <energy>
    <i name="e_fr_energy">   -296.16584318 </i>
    <i name="e_wo_entrp">   -296.06350515 </i>
    <i name="e_0_energy">   -296.13173050 </i>
   </energy>
  </scstep>
  <scstep>
   <time name="dav">   55.31   55.36</time>
   <time name="total">   58.72   58.77</time>
   <energy>
    <i name="e_fr_energy">   -296.16407249 </i>
    <i name="e_wo_entrp">   -296.06172790 </i>
    <i name="e_0_energy">   -296.12995763 </i>
   </energy>
  </scstep>
  <scstep>
   <time name="dav">   52.25   52.30</time>
   <time name="total">   55.62   55.66</time>
   <energy>
    <i name="e_fr_energy">   -296.16111983 </i>
    <i name="e_wo_entrp">   -296.05881336 </i>
    <i name="e_0_energy">   -296.12701767 </i>
   </energy>
  </scstep>
  <scstep>
   <time name="dav">   53.50   53.55</time>
   <time name="total">   56.87   56.92</time>
   <energy>
    <i name="e_fr_energy">   -296.15946311 </i>
    <i name="e_wo_entrp">   -296.05712240 </i>
    <i name="e_0_energy">   -296.12534954 </i>
   </energy>
  </scstep>
  <scstep>
   <time name="dav">   43.27   43.31</time>
   <time name="total">   43.48   43.52</time>
   <energy>
    <i name="alphaZ">   1333.75959993 </i>
    <i name="ewald"> 410006.65106125 </i>
    <i name="hartreedc">-452084.45784825 </i>
    <i name="XCdc">    207.67944052 </i>
    <i name="pawpsdc">  48955.83161439 </i>
    <i name="pawaedc"> -47524.20170902 </i>
    <i name="eentropy">     -0.10268781 </i>
    <i name="bandstr">  -1383.94202678 </i>
    <i name="atom">  40192.62307366 </i>
    <i name="e_fr_energy">   -296.15948210 </i>
    <i name="e_wo_entrp">   -296.05679429 </i>
    <i name="e_0_energy">   -296.12525283 </i>
   </energy>
  </scstep>
  <structure>
   <crystal>
    <varray name="basis" >
     <v>       8.46376883       0.00000000      -0.00000000 </v>
     <v>      -4.23188442       7.32983882       0.00000000 </v>
     <v>       0.00000000       0.00000000      34.55319157 </v>
    </varray>
    <i name="volume">   2143.61301901 </i>
    <varray name="rec_basis" >
     <v>       0.11815067       0.06821432      -0.00000000 </v>
     <v>      -0.00000000       0.13642865       0.00000000 </v>
     <v>       0.00000000       0.00000000       0.02894089 </v>
    </varray>
   </crystal>
   <varray name="positions" >
    <v>       0.11111111       0.22222222       0.33333333 </v>
    <v>       0.00000000       0.00000000       0.46666667 </v>
    <v>       0.22222222       0.11111111       0.40000000 </v>
    <v>       0.11111111       0.22222222       0.53333333 </v>
    <v>       0.32634556       0.00825929       0.66789914 </v>
    <v>       0.22222222       0.11111111       0.60000000 </v>
    <v>       0.11111111       0.55555556       0.33333333 </v>
    <v>       0.00000000       0.33333333       0.46666667 </v>
    <v>       0.22222222       0.44444444       0.40000000 </v>
    <v>       0.11111111       0.55555556       0.53333333 </v>
    <v>       0.33472958       0.33114667       0.66691376 </v>
    <v>       0.22222222       0.44444444       0.60000000 </v>
    <v>       0.11111111       0.88888889       0.33333333 </v>
    <v>       0.00000000       0.66666667       0.46666667 </v>
    <v>       0.22222222       0.77777778       0.40000000 </v>
    <v>       0.11111111       0.88888889       0.53333333 </v>
    <v>       0.34170937       0.65713524       0.66801217 </v>
    <v>       0.22222222       0.77777778       0.60000000 </v>
    <v>       0.44444444       0.22222222       0.33333333 </v>
    <v>       0.33333333       0.00000000       0.46666667 </v>
    <v>       0.55555556       0.11111111       0.40000000 </v>
    <v>       0.44444444       0.22222222       0.53333333 </v>
    <v>       0.68033628       0.00666334       0.66790972 </v>
    <v>       0.55555556       0.11111111       0.60000000 </v>
    <v>       0.44444444       0.55555556       0.33333333 </v>
    <v>       0.33333333       0.33333333       0.46666667 </v>
    <v>       0.55555556       0.44444444       0.40000000 </v>
    <v>       0.44444444       0.55555556       0.53333333 </v>
    <v>       0.66385937       0.33488230       0.66657911 </v>
    <v>       0.55555556       0.44444444       0.60000000 </v>
    <v>       0.44444444       0.88888889       0.33333333 </v>
    <v>       0.33333333       0.66666667       0.46666667 </v>
    <v>       0.55555556       0.77777778       0.40000000 </v>
    <v>       0.44444444       0.88888889       0.53333333 </v>
    <v>       0.66759270       0.66389759       0.66689867 </v>
    <v>       0.55555556       0.77777778       0.60000000 </v>
    <v>       0.77777778       0.22222222       0.33333333 </v>
    <v>       0.66666667       0.00000000       0.46666667 </v>
    <v>       0.88888889       0.11111111       0.40000000 </v>
    <v>       0.77777778       0.22222222       0.53333333 </v>
    <v>       0.99854271       0.00019607       0.66697243 </v>
    <v>       0.88888889       0.11111111       0.60000000 </v>
    <v>       0.77777778       0.55555556       0.33333333 </v>
    <v>       0.66666667       0.33333333       0.46666667 </v>
    <v>       0.88888889       0.44444444       0.40000000 </v>
    <v>       0.77777778       0.55555556       0.53333333 </v>
    <v>       0.99209973       0.31819067       0.66788728 </v>
    <v>       0.88888889       0.44444444       0.60000000 </v>
    <v>       0.77777778       0.88888889       0.33333333 </v>
    <v>       0.66666667       0.66666667       0.46666667 </v>
    <v>       0.88888889       0.77777778       0.40000000 </v>
    <v>       0.77777778       0.88888889       0.53333333 </v>
    <v>       0.99030109       0.67231921       0.66797623 </v>
    <v>       0.88888889       0.77777778       0.60000000 </v>
    <v>       0.44917478       0.89646429       0.69982492 </v>
    <v>       0.10222104       0.54935079       0.69982088 </v>
   </varray>
  </structure>
  <varray name="forces" >
   <v>      -0.00581051       0.00087510      -0.15965385 </v>
   <v>       0.00609432      -0.00393675      -0.01073046 </v>
   <v>      -0.00267376      -0.00877896       0.21551813 </v>
   <v>      -0.00063407      -0.01005843      -0.07137299 </v>
   <v>      -0.12470398      -0.06842269       0.07144317 </v>
   <v>       0.17688595      -0.07117652       0.06221440 </v>
   <v>      -0.00620488       0.00211823      -0.16928669 </v>
   <v>      -0.03041464       0.00880923      -0.01647352 </v>
   <v>      -0.00865064       0.02321059       0.22941159 </v>
   <v>      -0.00442752      -0.02704055      -0.02905772 </v>
   <v>       0.00416785      -0.02478260       0.00253720 </v>
   <v>      -0.00156790       0.14611176       0.04742027 </v>
   <v>       0.00750896      -0.00467811      -0.16843597 </v>
   <v>      -0.01451848       0.00491233       0.02393067 </v>
   <v>       0.01943948      -0.01130040       0.22593070 </v>
   <v>      -0.05184097       0.03194067      -0.08290123 </v>
   <v>       0.05548853      -0.03537640       0.09652942 </v>
   <v>       0.01119350      -0.01466422      -0.10140454 </v>
   <v>       0.00489430      -0.00776127      -0.14863653 </v>
   <v>      -0.01146776       0.01052959       0.02383519 </v>
   <v>       0.01644753      -0.01961643       0.20514200 </v>
   <v>      -0.02585524       0.01403424      -0.08131172 </v>
   <v>       0.09802539       0.05015020       0.03675862 </v>
   <v>      -0.03932282      -0.04078523      -0.20039510 </v>
   <v>      -0.00542167       0.00300920      -0.17223369 </v>
   <v>       0.02201935       0.00662029      -0.03765672 </v>
   <v>      -0.01076871       0.00619737       0.18900318 </v>
   <v>       0.01868233      -0.00965001      -0.09512039 </v>
   <v>       0.04205466      -0.01987311      -0.08370641 </v>
   <v>       0.01710264      -0.01836685      -0.36767033 </v>
   <v>      -0.00506243       0.00395039      -0.16925405 </v>
   <v>       0.01376375      -0.00779803       0.02543949 </v>
   <v>      -0.02449947      -0.00426346       0.22934044 </v>
   <v>       0.02274094       0.02004176      -0.03017094 </v>
   <v>       0.02352515       0.02022191       0.00620807 </v>
   <v>      -0.13258760      -0.08077615       0.04513733 </v>
   <v>       0.00474349      -0.00293841      -0.17450528 </v>
   <v>      -0.02201658       0.02207654      -0.01611519 </v>
   <v>      -0.01070307       0.00602414       0.24199552 </v>
   <v>       0.02761935      -0.01466748      -0.10400459 </v>
   <v>       0.09363554      -0.05588294       0.07103508 </v>
   <v>      -0.17791131       0.09097587       0.30018082 </v>
   <v>       0.00909498      -0.00038723      -0.14853929 </v>
   <v>      -0.00075893       0.00076694      -0.00318429 </v>
   <v>       0.02521374      -0.00479076       0.20493949 </v>
   <v>      -0.02284358       0.01885974      -0.08200587 </v>
   <v>       0.00311615      -0.08483911       0.04191476 </v>
   <v>       0.01187623       0.04954359      -0.19367388 </v>
   <v>      -0.00378021       0.00421941      -0.15973679 </v>
   <v>       0.00535464      -0.02294749      -0.03803003 </v>
   <v>       0.00606607       0.00684563       0.21522894 </v>
   <v>       0.00885071       0.00653548      -0.07128401 </v>
   <v>       0.01130491       0.14604241       0.06156683 </v>
   <v>       0.14573206      -0.12985341       0.06234164 </v>
   <v>      -0.04636236       0.11390832       0.12795853 </v>
   <v>      -0.12183340      -0.01311792       0.12359059 </v>
  </varray>
  <energy>
   <i name="e_fr_energy">   -296.15948210 </i>
   <i name="e_wo_entrp">   -296.05679429 </i>
   <i name="e_0_energy">   -296.12525283 </i>
  </energy>
  <time name="totalsc"> 1833.33 1835.04</time>
  <eigenvalues>
   <array>
    <dimension dim="1">band</dimension>
    <dimension dim="2">kpoint</dimension>
    <dimension dim="3">spin</dimension>
    <field>eigene</field>
    <field>occ</field>
    <set>
     <set comment="spin 1">
      <set comment="kpoint 1">
       <r>  -18.8049    1.0000 </r>
       <r>  -18.6609    1.0000 </r>
       <r>   -8.5469    1.0000 </r>
       <r>   -7.8413    1.0000 </r>
       <r>   -6.9563    1.0000 </r>
       <r>   -6.5072    1.0000 </r>
       <r>   -6.2702    1.0000 </r>
       <r>   -6.2376    1.0000 </r>
       <r>   -6.0427    1.0000 </r>
       <r>   -6.0153    1.0000 </r>
       <r>   -5.9995    1.0000 </r>
       <r>   -5.9925    1.0000 </r>
       <r>   -5.9906    1.0000 </r>
       <r>   -5.9384    1.0000 </r>
       <r>   -5.9299    1.0000 </r>
       <r>   -5.8256    1.0000 </r>
       <r>   -5.8001    1.0000 </r>
       <r>   -5.7089    1.0000 </r>
       <r>   -5.5777    1.0000 </r>
       <r>   -5.5607    1.0000 </r>
       <r>   -5.5181    1.0000 </r>
       <r>   -5.5086    1.0000 </r>
       <r>   -5.4997    1.0000 </r>
       <r>   -5.4744    1.0000 </r>
       <r>   -5.3482    1.0000 </r>
       <r>   -5.3181    1.0000 </r>
       <r>   -5.2678    1.0000 </r>
       <r>   -5.2481    1.0000 </r>
       <r>   -5.2393    1.0000 </r>
       <r>   -5.2375    1.0000 </r>
       <r>   -5.1460    1.0000 </r>
       <r>   -5.0575    1.0000 </r>
       <r>   -5.0326    1.0000 </r>
       <r>   -4.9058    1.0000 </r>
       <r>   -4.9008    1.0000 </r>
       <r>   -4.8934    1.0000 </r>
       <r>   -4.8382    1.0000 </r>
       <r>   -4.8057    1.0000 </r>
       <r>   -4.7080    1.0000 </r>
       <r>   -4.7023    1.0000 </r>
       <r>   -4.6936    1.0000 </r>
       <r>   -4.6903    1.0000 </r>
       <r>   -4.6862    1.0000 </r>
       <r>   -4.6708    1.0000 </r>
       <r>   -4.6237    1.0000 </r>
       <r>   -4.4697    1.0000 </r>
       <r>   -4.4658    1.0000 </r>
       <r>   -4.4579    1.0000 </r>
       <r>   -4.4438    1.0000 </r>
       <r>   -4.4404    1.0000 </r>
       <r>   -4.4337    1.0000 </r>
       <r>   -4.4141    1.0000 </r>
       <r>   -4.4120    1.0000 </r>
       <r>   -4.4087    1.0000 </r>
       <r>   -4.4049    1.0000 </r>
       <r>   -4.3878    1.0000 </r>
       <r>   -4.3857    1.0000 </r>
       <r>   -4.3145    1.0000 </r>
       <r>   -4.2727    1.0000 </r>
       <r>   -4.2600    1.0000 </r>
       <r>   -4.2083    1.0000 </r>
       <r>   -4.2076    1.0000 </r>
       <r>   -4.2055    1.0000 </r>
       <r>   -4.1844    1.0000 </r>
       <r>   -4.1721    1.0000 </r>
       <r>   -4.1054    1.0000 </r>
       <r>   -4.0390    1.0000 </r>
       <r>   -4.0182    1.0000 </r>
       <r>   -3.9828    1.0000 </r>
       <r>   -3.9762    1.0000 </r>
       <r>   -3.9367    1.0000 </r>
       <r>   -3.9154    1.0000 </r>
       <r>   -3.7970    1.0000 </r>
       <r>   -3.7512    1.0000 </r>
       <r>   -3.7369    1.0000 </r>
       <r>   -3.7235    1.0000 </r>
       <r>   -3.6699    1.0000 </r>
       <r>   -3.6600    1.0000 </r>
       <r>   -3.6413    1.0000 </r>
       <r>   -3.6337    1.0000 </r>
       <r>   -3.6321    1.0000 </r>
       <r>   -3.6191    1.0000 </r>
       <r>   -3.6171    1.0000 </r>
       <r>   -3.6100    1.0000 </r>
       <r>   -3.3815    1.0000 </r>
       <r>   -3.3777    1.0000 </r>
       <r>   -3.3514    1.0000 </r>
       <r>   -3.3507    1.0000 </r>
       <r>   -3.3237    1.0000 </r>
       <r>   -3.2947    1.0000 </r>
       <r>   -3.1507    1.0000 </r>
       <r>   -3.1421    1.0000 </r>
       <r>   -3.1003    1.0000 </r>
       <r>   -3.0976    1.0000 </r>
       <r>   -3.0656    1.0000 </r>
       <r>   -3.0569    1.0000 </r>
       <r>   -2.8725    1.0000 </r>
       <r>   -2.8530    1.0000 </r>
       <r>   -2.8396    1.0000 </r>
       <r>   -2.8343    1.0000 </r>
       <r>   -2.8286    1.0000 </r>
       <r>   -2.7971    1.0000 </r>
       <r>   -2.7901    1.0000 </r>
       <r>   -2.7826    1.0000 </r>
       <r>   -2.7551    1.0000 </r>
       <r>   -2.7543    1.0000 </r>
       <r>   -2.7402    1.0000 </r>
       <r>   -2.7389    1.0000 </r>
       <r>   -2.7352    1.0000 </r>
       <r>   -2.7200    1.0000 </r>
       <r>   -2.6527    1.0000 </r>
       <r>   -2.6521    1.0000 </r>
       <r>   -2.5850    1.0000 </r>
       <r>   -2.5668    1.0000 </r>
       <r>   -2.5638    1.0000 </r>
       <r>   -2.5568    1.0000 </r>
       <r>   -2.5539    1.0000 </r>
       <r>   -2.5522    1.0000 </r>
       <r>   -2.5409    1.0000 </r>
       <r>   -2.5317    1.0000 </r>
       <r>   -2.5284    1.0000 </r>
       <r>   -2.5265    1.0000 </r>
       <r>   -2.5238    1.0000 </r>
       <r>   -2.4722    1.0000 </r>
       <r>   -2.4696    1.0000 </r>
       <r>   -2.4618    1.0000 </r>
       <r>   -2.4515    1.0000 </r>
       <r>   -2.4456    1.0000 </r>
       <r>   -2.4436    1.0000 </r>
       <r>   -2.4355    1.0000 </r>
       <r>   -2.4336    1.0000 </r>
       <r>   -2.3639    1.0000 </r>
       <r>   -2.3611    1.0000 </r>
       <r>   -2.3598    1.0000 </r>
       <r>   -2.3556    1.0000 </r>
       <r>   -2.3462    1.0000 </r>
       <r>   -2.3334    1.0000 </r>
       <r>   -2.3301    1.0000 </r>
       <r>   -2.3265    1.0000 </r>
       <r>   -2.3229    1.0000 </r>
       <r>   -2.3143    1.0000 </r>
       <r>   -2.3121    1.0000 </r>
       <r>   -2.3076    1.0000 </r>
       <r>   -2.3041    1.0000 </r>
       <r>   -2.3012    1.0000 </r>
       <r>   -2.1903    1.0000 </r>
       <r>   -2.1421    1.0000 </r>
       <r>   -2.1217    1.0000 </r>
       <r>   -2.0643    1.0000 </r>
       <r>   -2.0339    1.0000 </r>
       <r>   -2.0327    1.0000 </r>
       <r>   -2.0258    1.0000 </r>
       <r>   -2.0183    1.0000 </r>
       <r>   -2.0092    1.0000 </r>
       <r>   -1.9986    1.0000 </r>
       <r>   -1.9897    1.0000 </r>
       <r>   -1.9811    1.0000 </r>
       <r>   -1.9364    1.0000 </r>
       <r>   -1.9362    1.0000 </r>
       <r>   -1.9292    1.0000 </r>
       <r>   -1.8721    1.0000 </r>
       <r>   -1.8720    1.0000 </r>
       <r>   -1.8654    1.0000 </r>
       <r>   -1.8638    1.0000 </r>
       <r>   -1.8237    1.0000 </r>
       <r>   -1.8010    1.0000 </r>
       <r>   -1.7999    1.0000 </r>
       <r>   -1.7964    1.0000 </r>
       <r>   -1.7560    1.0000 </r>
       <r>   -1.6229    1.0000 </r>
       <r>   -1.4879    1.0000 </r>
       <r>   -1.4589    1.0000 </r>
       <r>   -1.4233    1.0000 </r>
       <r>   -1.4102    1.0000 </r>
       <r>   -1.3758    1.0000 </r>
       <r>   -1.3619    1.0000 </r>
       <r>   -1.3186    1.0000 </r>
       <r>   -1.2718    1.0000 </r>
       <r>   -1.2544    1.0000 </r>
       <r>   -1.2298    1.0000 </r>
       <r>   -1.2165    1.0000 </r>
       <r>   -1.2005    1.0000 </r>
       <r>   -1.1175    1.0000 </r>
       <r>   -1.1126    1.0000 </r>
       <r>   -1.0662    1.0000 </r>
       <r>   -1.0573    1.0000 </r>
       <r>   -1.0506    1.0000 </r>
       <r>   -1.0501    1.0000 </r>
       <r>   -1.0429    1.0000 </r>
       <r>   -1.0384    1.0000 </r>
       <r>   -1.0314    1.0000 </r>
       <r>   -1.0273    1.0000 </r>
       <r>   -1.0256    1.0000 </r>
       <r>   -1.0209    1.0000 </r>
       <r>   -1.0150    1.0000 </r>
       <r>   -0.9979    1.0000 </r>
       <r>   -0.9687    1.0000 </r>
       <r>   -0.9490    1.0000 </r>
       <r>   -0.9386    1.0000 </r>
       <r>   -0.8441    1.0000 </r>
       <r>   -0.7419    1.0000 </r>
       <r>   -0.7228    1.0000 </r>
       <r>   -0.7195    1.0000 </r>
       <r>   -0.6724    1.0000 </r>
       <r>   -0.6651    1.0000 </r>
       <r>   -0.6639    1.0000 </r>
       <r>   -0.6617    1.0000 </r>
       <r>   -0.6542    1.0000 </r>
       <r>   -0.6339    1.0000 </r>
       <r>   -0.5938    1.0000 </r>
       <r>   -0.5801    1.0000 </r>
       <r>   -0.5429    1.0000 </r>
       <r>   -0.5112    1.0000 </r>
       <r>   -0.4322    1.0000 </r>
       <r>   -0.4117    1.0000 </r>
       <r>   -0.3889    1.0000 </r>
       <r>   -0.3741    1.0000 </r>
       <r>   -0.3736    1.0000 </r>
       <r>   -0.3252    1.0000 </r>
       <r>   -0.3055    1.0000 </r>
       <r>   -0.2616    1.0000 </r>
       <r>   -0.2429    1.0000 </r>
       <r>   -0.2314    1.0000 </r>
       <r>   -0.2130    1.0000 </r>
       <r>   -0.2081    1.0000 </r>
       <r>   -0.2068    1.0000 </r>
       <r>   -0.2041    1.0000 </r>
       <r>   -0.1731    1.0000 </r>
       <r>   -0.1553    1.0000 </r>
       <r>   -0.1551    1.0000 </r>
       <r>   -0.1517    1.0000 </r>
       <r>   -0.1457    1.0000 </r>
       <r>   -0.1446    1.0000 </r>
       <r>   -0.1404    1.0000 </r>
       <r>   -0.1400    1.0000 </r>
       <r>   -0.0890    1.0000 </r>
       <r>   -0.0801    1.0000 </r>
       <r>   -0.0799    1.0000 </r>
       <r>   -0.0773    1.0000 </r>
       <r>   -0.0596    1.0000 </r>
       <r>   -0.0563    1.0000 </r>
       <r>    0.0281    1.0000 </r>
       <r>    0.0483    1.0000 </r>
       <r>    0.0801    1.0000 </r>
       <r>    0.1153    1.0000 </r>
       <r>    0.1170    1.0000 </r>
       <r>    0.1249    1.0000 </r>
       <r>    0.1324    1.0000 </r>
       <r>    0.1444    1.0000 </r>
       <r>    0.1460    1.0000 </r>
       <r>    0.1628    1.0000 </r>
       <r>    0.2081    1.0001 </r>
       <r>    0.2095    1.0001 </r>
       <r>    0.2309    1.0002 </r>
       <r>    0.2407    1.0002 </r>
       <r>    0.2446    1.0003 </r>
       <r>    0.2569    1.0004 </r>
       <r>    0.2676    1.0005 </r>
       <r>    0.2809    1.0006 </r>
       <r>    0.2812    1.0006 </r>
       <r>    0.2890    1.0008 </r>
       <r>    0.2961    1.0009 </r>
       <r>    0.3025    1.0010 </r>
       <r>    0.3045    1.0011 </r>
       <r>    0.3064    1.0011 </r>
       <r>    0.3341    1.0021 </r>
       <r>    0.3570    1.0033 </r>
       <r>    0.3817    1.0052 </r>
       <r>    0.3876    1.0058 </r>
       <r>    0.3882    1.0058 </r>
       <r>    0.3926    1.0063 </r>
       <r>    0.3966    1.0067 </r>
       <r>    0.4021    1.0074 </r>
       <r>    0.4102    1.0084 </r>
       <r>    0.4303    1.0114 </r>
       <r>    0.4727    1.0198 </r>
       <r>    0.4827    1.0221 </r>
       <r>    0.5418    1.0341 </r>
       <r>    0.5481    1.0348 </r>
       <r>    0.5717    1.0351 </r>
       <r>    0.5852    1.0330 </r>
       <r>    0.5884    1.0322 </r>
       <r>    0.5981    1.0291 </r>
       <r>    0.6001    1.0283 </r>
       <r>    0.6258    1.0124 </r>
       <r>    0.6279    1.0105 </r>
       <r>    0.6467    0.9904 </r>
       <r>    0.6840    0.9265 </r>
       <r>    0.7531    0.7189 </r>
       <r>    0.7748    0.6338 </r>
       <r>    0.8349    0.3829 </r>
       <r>    0.8573    0.2941 </r>
       <r>    0.9021    0.1433 </r>
       <r>    0.9248    0.0848 </r>
       <r>    0.9371    0.0585 </r>
       <r>    0.9417    0.0496 </r>
       <r>    0.9568    0.0241 </r>
       <r>    1.0307   -0.0335 </r>
       <r>    1.1470   -0.0185 </r>
       <r>    1.2370   -0.0048 </r>
       <r>    1.2917   -0.0016 </r>
       <r>    1.5022   -0.0000 </r>
       <r>    1.5367   -0.0000 </r>
       <r>    1.6100   -0.0000 </r>
       <r>    1.7498   -0.0000 </r>
       <r>    1.8398   -0.0000 </r>
       <r>    1.8547   -0.0000 </r>
       <r>    2.6674   -0.0000 </r>
       <r>    2.7132   -0.0000 </r>
       <r>    3.1088   -0.0000 </r>
       <r>    3.2017   -0.0000 </r>
       <r>    3.2339   -0.0000 </r>
       <r>    3.3910   -0.0000 </r>
       <r>    3.8402   -0.0000 </r>
       <r>    3.9391   -0.0000 </r>
       <r>    4.7535   -0.0000 </r>
       <r>    4.7864   -0.0000 </r>
       <r>    4.8053   -0.0000 </r>
       <r>    4.9362   -0.0000 </r>
       <r>    5.0756   -0.0000 </r>
       <r>    5.1274   -0.0000 </r>
       <r>    5.2936   -0.0000 </r>
       <r>    5.3006   -0.0000 </r>
       <r>    5.3342   -0.0000 </r>
       <r>    5.3509   -0.0000 </r>
       <r>    5.3662   -0.0000 </r>
       <r>    5.3737   -0.0000 </r>
       <r>    5.8922   -0.0000 </r>
       <r>    5.9481   -0.0000 </r>
       <r>    5.9542   -0.0000 </r>
       <r>    6.0120   -0.0000 </r>
       <r>    6.0495   -0.0000 </r>
      </set>
      <set comment="kpoint 2">
       <r>  -18.8019    1.0000 </r>
       <r>  -18.6636    1.0000 </r>
       <r>   -8.3982    1.0000 </r>
       <r>   -7.6998    1.0000 </r>
       <r>   -6.8253    1.0000 </r>
       <r>   -6.6046    1.0000 </r>
       <r>   -6.4177    1.0000 </r>
       <r>   -6.2767    1.0000 </r>
       <r>   -6.1341    1.0000 </r>
       <r>   -6.1102    1.0000 </r>
       <r>   -6.0737    1.0000 </r>
       <r>   -5.9993    1.0000 </r>
       <r>   -5.8706    1.0000 </r>
       <r>   -5.8431    1.0000 </r>
       <r>   -5.7662    1.0000 </r>
       <r>   -5.7513    1.0000 </r>
       <r>   -5.7368    1.0000 </r>
       <r>   -5.6671    1.0000 </r>
       <r>   -5.6576    1.0000 </r>
       <r>   -5.6010    1.0000 </r>
       <r>   -5.5294    1.0000 </r>
       <r>   -5.4246    1.0000 </r>
       <r>   -5.3487    1.0000 </r>
       <r>   -5.3217    1.0000 </r>
       <r>   -5.3122    1.0000 </r>
       <r>   -5.2881    1.0000 </r>
       <r>   -5.2527    1.0000 </r>
       <r>   -5.2358    1.0000 </r>
       <r>   -5.1860    1.0000 </r>
       <r>   -5.1608    1.0000 </r>
       <r>   -5.1029    1.0000 </r>
       <r>   -5.0237    1.0000 </r>
       <r>   -5.0047    1.0000 </r>
       <r>   -4.9545    1.0000 </r>
       <r>   -4.9340    1.0000 </r>
       <r>   -4.8686    1.0000 </r>
       <r>   -4.8237    1.0000 </r>
       <r>   -4.7974    1.0000 </r>
       <r>   -4.7807    1.0000 </r>
       <r>   -4.7728    1.0000 </r>
       <r>   -4.7258    1.0000 </r>
       <r>   -4.6842    1.0000 </r>
       <r>   -4.6776    1.0000 </r>
       <r>   -4.5975    1.0000 </r>
       <r>   -4.5901    1.0000 </r>
       <r>   -4.5850    1.0000 </r>
       <r>   -4.5443    1.0000 </r>
       <r>   -4.4897    1.0000 </r>
       <r>   -4.4772    1.0000 </r>
       <r>   -4.4668    1.0000 </r>
       <r>   -4.4470    1.0000 </r>
       <r>   -4.4307    1.0000 </r>
       <r>   -4.4071    1.0000 </r>
       <r>   -4.3729    1.0000 </r>
       <r>   -4.3615    1.0000 </r>
       <r>   -4.3507    1.0000 </r>
       <r>   -4.3131    1.0000 </r>
       <r>   -4.2936    1.0000 </r>
       <r>   -4.2799    1.0000 </r>
       <r>   -4.2631    1.0000 </r>
       <r>   -4.2353    1.0000 </r>
       <r>   -4.2196    1.0000 </r>
       <r>   -4.2107    1.0000 </r>
       <r>   -4.1394    1.0000 </r>
       <r>   -4.1050    1.0000 </r>
       <r>   -4.0379    1.0000 </r>
       <r>   -4.0153    1.0000 </r>
       <r>   -4.0061    1.0000 </r>
       <r>   -3.9977    1.0000 </r>
       <r>   -3.9708    1.0000 </r>
       <r>   -3.9578    1.0000 </r>
       <r>   -3.8529    1.0000 </r>
       <r>   -3.8268    1.0000 </r>
       <r>   -3.7944    1.0000 </r>
       <r>   -3.7655    1.0000 </r>
       <r>   -3.7213    1.0000 </r>
       <r>   -3.7019    1.0000 </r>
       <r>   -3.6725    1.0000 </r>
       <r>   -3.6685    1.0000 </r>
       <r>   -3.6146    1.0000 </r>
       <r>   -3.6080    1.0000 </r>
       <r>   -3.5872    1.0000 </r>
       <r>   -3.5637    1.0000 </r>
       <r>   -3.4974    1.0000 </r>
       <r>   -3.4589    1.0000 </r>
       <r>   -3.4375    1.0000 </r>
       <r>   -3.3998    1.0000 </r>
       <r>   -3.3640    1.0000 </r>
       <r>   -3.3366    1.0000 </r>
       <r>   -3.2990    1.0000 </r>
       <r>   -3.2275    1.0000 </r>
       <r>   -3.2087    1.0000 </r>
       <r>   -3.1801    1.0000 </r>
       <r>   -3.1705    1.0000 </r>
       <r>   -3.1624    1.0000 </r>
       <r>   -3.1357    1.0000 </r>
       <r>   -3.0878    1.0000 </r>
       <r>   -3.0753    1.0000 </r>
       <r>   -3.0538    1.0000 </r>
       <r>   -3.0277    1.0000 </r>
       <r>   -2.9642    1.0000 </r>
       <r>   -2.9556    1.0000 </r>
       <r>   -2.9009    1.0000 </r>
       <r>   -2.8670    1.0000 </r>
       <r>   -2.8493    1.0000 </r>
       <r>   -2.8193    1.0000 </r>
       <r>   -2.8034    1.0000 </r>
       <r>   -2.7953    1.0000 </r>
       <r>   -2.7709    1.0000 </r>
       <r>   -2.7503    1.0000 </r>
       <r>   -2.7489    1.0000 </r>
       <r>   -2.7198    1.0000 </r>
       <r>   -2.6691    1.0000 </r>
       <r>   -2.6491    1.0000 </r>
       <r>   -2.6399    1.0000 </r>
       <r>   -2.6232    1.0000 </r>
       <r>   -2.6095    1.0000 </r>
       <r>   -2.6032    1.0000 </r>
       <r>   -2.5904    1.0000 </r>
       <r>   -2.5667    1.0000 </r>
       <r>   -2.5455    1.0000 </r>
       <r>   -2.5343    1.0000 </r>
       <r>   -2.5288    1.0000 </r>
       <r>   -2.5191    1.0000 </r>
       <r>   -2.5042    1.0000 </r>
       <r>   -2.4949    1.0000 </r>
       <r>   -2.4867    1.0000 </r>
       <r>   -2.4568    1.0000 </r>
       <r>   -2.4386    1.0000 </r>
       <r>   -2.4245    1.0000 </r>
       <r>   -2.3868    1.0000 </r>
       <r>   -2.3772    1.0000 </r>
       <r>   -2.3654    1.0000 </r>
       <r>   -2.3511    1.0000 </r>
       <r>   -2.3407    1.0000 </r>
       <r>   -2.3289    1.0000 </r>
       <r>   -2.3257    1.0000 </r>
       <r>   -2.2993    1.0000 </r>
       <r>   -2.2808    1.0000 </r>
       <r>   -2.2640    1.0000 </r>
       <r>   -2.2553    1.0000 </r>
       <r>   -2.2447    1.0000 </r>
       <r>   -2.2312    1.0000 </r>
       <r>   -2.2195    1.0000 </r>
       <r>   -2.2002    1.0000 </r>
       <r>   -2.1888    1.0000 </r>
       <r>   -2.1785    1.0000 </r>
       <r>   -2.1571    1.0000 </r>
       <r>   -2.1341    1.0000 </r>
       <r>   -2.0909    1.0000 </r>
       <r>   -2.0733    1.0000 </r>
       <r>   -2.0606    1.0000 </r>
       <r>   -2.0322    1.0000 </r>
       <r>   -2.0169    1.0000 </r>
       <r>   -2.0066    1.0000 </r>
       <r>   -1.9806    1.0000 </r>
       <r>   -1.9675    1.0000 </r>
       <r>   -1.9560    1.0000 </r>
       <r>   -1.9420    1.0000 </r>
       <r>   -1.9338    1.0000 </r>
       <r>   -1.9289    1.0000 </r>
       <r>   -1.9143    1.0000 </r>
       <r>   -1.8834    1.0000 </r>
       <r>   -1.8633    1.0000 </r>
       <r>   -1.8285    1.0000 </r>
       <r>   -1.7680    1.0000 </r>
       <r>   -1.7587    1.0000 </r>
       <r>   -1.7363    1.0000 </r>
       <r>   -1.7051    1.0000 </r>
       <r>   -1.6921    1.0000 </r>
       <r>   -1.6717    1.0000 </r>
       <r>   -1.6442    1.0000 </r>
       <r>   -1.6438    1.0000 </r>
       <r>   -1.6114    1.0000 </r>
       <r>   -1.5734    1.0000 </r>
       <r>   -1.5227    1.0000 </r>
       <r>   -1.4753    1.0000 </r>
       <r>   -1.4471    1.0000 </r>
       <r>   -1.4139    1.0000 </r>
       <r>   -1.3641    1.0000 </r>
       <r>   -1.3429    1.0000 </r>
       <r>   -1.3357    1.0000 </r>
       <r>   -1.3071    1.0000 </r>
       <r>   -1.2726    1.0000 </r>
       <r>   -1.2383    1.0000 </r>
       <r>   -1.1721    1.0000 </r>
       <r>   -1.1458    1.0000 </r>
       <r>   -1.1361    1.0000 </r>
       <r>   -1.1056    1.0000 </r>
       <r>   -1.0757    1.0000 </r>
       <r>   -1.0591    1.0000 </r>
       <r>   -1.0358    1.0000 </r>
       <r>   -0.9983    1.0000 </r>
       <r>   -0.9811    1.0000 </r>
       <r>   -0.9435    1.0000 </r>
       <r>   -0.9210    1.0000 </r>
       <r>   -0.9052    1.0000 </r>
       <r>   -0.8991    1.0000 </r>
       <r>   -0.8779    1.0000 </r>
       <r>   -0.8647    1.0000 </r>
       <r>   -0.8593    1.0000 </r>
       <r>   -0.8502    1.0000 </r>
       <r>   -0.8354    1.0000 </r>
       <r>   -0.8045    1.0000 </r>
       <r>   -0.7806    1.0000 </r>
       <r>   -0.7535    1.0000 </r>
       <r>   -0.7244    1.0000 </r>
       <r>   -0.6949    1.0000 </r>
       <r>   -0.6751    1.0000 </r>
       <r>   -0.6673    1.0000 </r>
       <r>   -0.6474    1.0000 </r>
       <r>   -0.6233    1.0000 </r>
       <r>   -0.6097    1.0000 </r>
       <r>   -0.6003    1.0000 </r>
       <r>   -0.5461    1.0000 </r>
       <r>   -0.5299    1.0000 </r>
       <r>   -0.5236    1.0000 </r>
       <r>   -0.5053    1.0000 </r>
       <r>   -0.4770    1.0000 </r>
       <r>   -0.4298    1.0000 </r>
       <r>   -0.3969    1.0000 </r>
       <r>   -0.3735    1.0000 </r>
       <r>   -0.3653    1.0000 </r>
       <r>   -0.3333    1.0000 </r>
       <r>   -0.3059    1.0000 </r>
       <r>   -0.2864    1.0000 </r>
       <r>   -0.2340    1.0000 </r>
       <r>   -0.2114    1.0000 </r>
       <r>   -0.1892    1.0000 </r>
       <r>   -0.1763    1.0000 </r>
       <r>   -0.1368    1.0000 </r>
       <r>   -0.1098    1.0000 </r>
       <r>   -0.0976    1.0000 </r>
       <r>   -0.0784    1.0000 </r>
       <r>   -0.0727    1.0000 </r>
       <r>   -0.0374    1.0000 </r>
       <r>   -0.0100    1.0000 </r>
       <r>    0.0130    1.0000 </r>
       <r>    0.0290    1.0000 </r>
       <r>    0.0392    1.0000 </r>
       <r>    0.0597    1.0000 </r>
       <r>    0.0687    1.0000 </r>
       <r>    0.0943    1.0000 </r>
       <r>    0.1184    1.0000 </r>
       <r>    0.1278    1.0000 </r>
       <r>    0.1577    1.0000 </r>
       <r>    0.1787    1.0000 </r>
       <r>    0.2068    1.0001 </r>
       <r>    0.2287    1.0002 </r>
       <r>    0.2458    1.0003 </r>
       <r>    0.2522    1.0003 </r>
       <r>    0.2640    1.0004 </r>
       <r>    0.2768    1.0006 </r>
       <r>    0.2991    1.0010 </r>
       <r>    0.3372    1.0022 </r>
       <r>    0.3547    1.0031 </r>
       <r>    0.3920    1.0062 </r>
       <r>    0.4002    1.0072 </r>
       <r>    0.4088    1.0082 </r>
       <r>    0.4217    1.0101 </r>
       <r>    0.4512    1.0153 </r>
       <r>    0.4627    1.0176 </r>
       <r>    0.4942    1.0247 </r>
       <r>    0.5206    1.0306 </r>
       <r>    0.5316    1.0326 </r>
       <r>    0.5401    1.0339 </r>
       <r>    0.5661    1.0354 </r>
       <r>    0.5744    1.0348 </r>
       <r>    0.5812    1.0338 </r>
       <r>    0.5941    1.0306 </r>
       <r>    0.6069    1.0251 </r>
       <r>    0.6110    1.0229 </r>
       <r>    0.6310    1.0077 </r>
       <r>    0.6412    0.9970 </r>
       <r>    0.6613    0.9693 </r>
       <r>    0.6972    0.8957 </r>
       <r>    0.7020    0.8834 </r>
       <r>    0.7173    0.8402 </r>
       <r>    0.7231    0.8224 </r>
       <r>    0.7511    0.7263 </r>
       <r>    0.7899    0.5719 </r>
       <r>    0.8002    0.5286 </r>
       <r>    0.8156    0.4635 </r>
       <r>    0.8384    0.3687 </r>
       <r>    0.8521    0.3143 </r>
       <r>    0.8567    0.2963 </r>
       <r>    0.8743    0.2322 </r>
       <r>    0.8891    0.1827 </r>
       <r>    0.9006    0.1477 </r>
       <r>    0.9203    0.0954 </r>
       <r>    0.9657    0.0115 </r>
       <r>    0.9901   -0.0141 </r>
       <r>    1.0077   -0.0255 </r>
       <r>    1.0367   -0.0345 </r>
       <r>    1.0574   -0.0353 </r>
       <r>    1.0920   -0.0308 </r>
       <r>    1.1085   -0.0273 </r>
       <r>    1.1744   -0.0130 </r>
       <r>    1.2307   -0.0053 </r>
       <r>    1.3389   -0.0006 </r>
       <r>    1.5256   -0.0000 </r>
       <r>    1.6824   -0.0000 </r>
       <r>    1.7848   -0.0000 </r>
       <r>    1.8826   -0.0000 </r>
       <r>    2.0254   -0.0000 </r>
       <r>    2.1503   -0.0000 </r>
       <r>    2.2358   -0.0000 </r>
       <r>    2.5793   -0.0000 </r>
       <r>    2.7843   -0.0000 </r>
       <r>    2.9780   -0.0000 </r>
       <r>    3.2323   -0.0000 </r>
       <r>    3.3933   -0.0000 </r>
       <r>    3.7465   -0.0000 </r>
       <r>    3.9144   -0.0000 </r>
       <r>    4.1685   -0.0000 </r>
       <r>    4.2269   -0.0000 </r>
       <r>    4.2865   -0.0000 </r>
       <r>    4.4481   -0.0000 </r>
       <r>    4.6564   -0.0000 </r>
       <r>    4.6945   -0.0000 </r>
       <r>    4.8525   -0.0000 </r>
       <r>    4.9226   -0.0000 </r>
       <r>    5.3586   -0.0000 </r>
       <r>    5.4253   -0.0000 </r>
       <r>    5.5075   -0.0000 </r>
       <r>    5.5228   -0.0000 </r>
       <r>    5.6660   -0.0000 </r>
       <r>    5.7161   -0.0000 </r>
       <r>    5.8020   -0.0000 </r>
       <r>    5.9838   -0.0000 </r>
       <r>    5.9966   -0.0000 </r>
       <r>    6.1982   -0.0000 </r>
      </set>
      <set comment="kpoint 3">
       <r>  -18.8044    1.0000 </r>
       <r>  -18.6609    1.0000 </r>
       <r>   -8.3986    1.0000 </r>
       <r>   -7.7026    1.0000 </r>
       <r>   -6.8462    1.0000 </r>
       <r>   -6.6221    1.0000 </r>
       <r>   -6.4508    1.0000 </r>
       <r>   -6.2596    1.0000 </r>
       <r>   -6.1601    1.0000 </r>
       <r>   -6.1094    1.0000 </r>
       <r>   -6.0605    1.0000 </r>
       <r>   -5.9212    1.0000 </r>
       <r>   -5.8724    1.0000 </r>
       <r>   -5.8409    1.0000 </r>
       <r>   -5.7827    1.0000 </r>
       <r>   -5.7761    1.0000 </r>
       <r>   -5.7333    1.0000 </r>
       <r>   -5.6578    1.0000 </r>
       <r>   -5.6125    1.0000 </r>
       <r>   -5.6091    1.0000 </r>
       <r>   -5.4881    1.0000 </r>
       <r>   -5.4348    1.0000 </r>
       <r>   -5.3649    1.0000 </r>
       <r>   -5.3230    1.0000 </r>
       <r>   -5.3178    1.0000 </r>
       <r>   -5.2961    1.0000 </r>
       <r>   -5.2681    1.0000 </r>
       <r>   -5.2115    1.0000 </r>
       <r>   -5.1757    1.0000 </r>
       <r>   -5.1429    1.0000 </r>
       <r>   -5.0793    1.0000 </r>
       <r>   -5.0376    1.0000 </r>
       <r>   -4.9983    1.0000 </r>
       <r>   -4.9652    1.0000 </r>
       <r>   -4.9052    1.0000 </r>
       <r>   -4.8536    1.0000 </r>
       <r>   -4.8394    1.0000 </r>
       <r>   -4.7880    1.0000 </r>
       <r>   -4.7796    1.0000 </r>
       <r>   -4.7572    1.0000 </r>
       <r>   -4.7210    1.0000 </r>
       <r>   -4.6823    1.0000 </r>
       <r>   -4.6743    1.0000 </r>
       <r>   -4.6424    1.0000 </r>
       <r>   -4.6002    1.0000 </r>
       <r>   -4.5843    1.0000 </r>
       <r>   -4.5740    1.0000 </r>
       <r>   -4.4955    1.0000 </r>
       <r>   -4.4798    1.0000 </r>
       <r>   -4.4725    1.0000 </r>
       <r>   -4.4330    1.0000 </r>
       <r>   -4.4295    1.0000 </r>
       <r>   -4.4166    1.0000 </r>
       <r>   -4.3890    1.0000 </r>
       <r>   -4.3684    1.0000 </r>
       <r>   -4.3540    1.0000 </r>
       <r>   -4.3073    1.0000 </r>
       <r>   -4.3008    1.0000 </r>
       <r>   -4.2881    1.0000 </r>
       <r>   -4.2686    1.0000 </r>
       <r>   -4.2423    1.0000 </r>
       <r>   -4.2123    1.0000 </r>
       <r>   -4.1933    1.0000 </r>
       <r>   -4.1338    1.0000 </r>
       <r>   -4.0982    1.0000 </r>
       <r>   -4.0260    1.0000 </r>
       <r>   -4.0231    1.0000 </r>
       <r>   -3.9998    1.0000 </r>
       <r>   -3.9962    1.0000 </r>
       <r>   -3.9845    1.0000 </r>
       <r>   -3.9410    1.0000 </r>
       <r>   -3.8705    1.0000 </r>
       <r>   -3.8534    1.0000 </r>
       <r>   -3.7850    1.0000 </r>
       <r>   -3.7637    1.0000 </r>
       <r>   -3.7363    1.0000 </r>
       <r>   -3.7020    1.0000 </r>
       <r>   -3.6749    1.0000 </r>
       <r>   -3.6708    1.0000 </r>
       <r>   -3.6110    1.0000 </r>
       <r>   -3.6077    1.0000 </r>
       <r>   -3.5856    1.0000 </r>
       <r>   -3.5601    1.0000 </r>
       <r>   -3.4881    1.0000 </r>
       <r>   -3.4833    1.0000 </r>
       <r>   -3.4299    1.0000 </r>
       <r>   -3.4030    1.0000 </r>
       <r>   -3.3575    1.0000 </r>
       <r>   -3.3379    1.0000 </r>
       <r>   -3.3105    1.0000 </r>
       <r>   -3.2215    1.0000 </r>
       <r>   -3.1917    1.0000 </r>
       <r>   -3.1912    1.0000 </r>
       <r>   -3.1840    1.0000 </r>
       <r>   -3.1532    1.0000 </r>
       <r>   -3.1498    1.0000 </r>
       <r>   -3.0759    1.0000 </r>
       <r>   -3.0742    1.0000 </r>
       <r>   -3.0553    1.0000 </r>
       <r>   -3.0333    1.0000 </r>
       <r>   -2.9623    1.0000 </r>
       <r>   -2.9233    1.0000 </r>
       <r>   -2.9174    1.0000 </r>
       <r>   -2.8670    1.0000 </r>
       <r>   -2.8378    1.0000 </r>
       <r>   -2.8302    1.0000 </r>
       <r>   -2.8139    1.0000 </r>
       <r>   -2.8047    1.0000 </r>
       <r>   -2.7636    1.0000 </r>
       <r>   -2.7511    1.0000 </r>
       <r>   -2.7504    1.0000 </r>
       <r>   -2.7409    1.0000 </r>
       <r>   -2.6694    1.0000 </r>
       <r>   -2.6482    1.0000 </r>
       <r>   -2.6357    1.0000 </r>
       <r>   -2.6239    1.0000 </r>
       <r>   -2.6076    1.0000 </r>
       <r>   -2.6051    1.0000 </r>
       <r>   -2.5922    1.0000 </r>
       <r>   -2.5576    1.0000 </r>
       <r>   -2.5482    1.0000 </r>
       <r>   -2.5475    1.0000 </r>
       <r>   -2.5383    1.0000 </r>
       <r>   -2.5141    1.0000 </r>
       <r>   -2.4984    1.0000 </r>
       <r>   -2.4915    1.0000 </r>
       <r>   -2.4865    1.0000 </r>
       <r>   -2.4491    1.0000 </r>
       <r>   -2.4431    1.0000 </r>
       <r>   -2.4290    1.0000 </r>
       <r>   -2.3840    1.0000 </r>
       <r>   -2.3740    1.0000 </r>
       <r>   -2.3609    1.0000 </r>
       <r>   -2.3532    1.0000 </r>
       <r>   -2.3449    1.0000 </r>
       <r>   -2.3314    1.0000 </r>
       <r>   -2.3220    1.0000 </r>
       <r>   -2.3094    1.0000 </r>
       <r>   -2.2790    1.0000 </r>
       <r>   -2.2680    1.0000 </r>
       <r>   -2.2555    1.0000 </r>
       <r>   -2.2501    1.0000 </r>
       <r>   -2.2363    1.0000 </r>
       <r>   -2.2188    1.0000 </r>
       <r>   -2.2095    1.0000 </r>
       <r>   -2.1826    1.0000 </r>
       <r>   -2.1763    1.0000 </r>
       <r>   -2.1678    1.0000 </r>
       <r>   -2.1588    1.0000 </r>
       <r>   -2.0840    1.0000 </r>
       <r>   -2.0754    1.0000 </r>
       <r>   -2.0473    1.0000 </r>
       <r>   -2.0309    1.0000 </r>
       <r>   -2.0189    1.0000 </r>
       <r>   -2.0024    1.0000 </r>
       <r>   -1.9827    1.0000 </r>
       <r>   -1.9796    1.0000 </r>
       <r>   -1.9520    1.0000 </r>
       <r>   -1.9358    1.0000 </r>
       <r>   -1.9297    1.0000 </r>
       <r>   -1.9196    1.0000 </r>
       <r>   -1.9067    1.0000 </r>
       <r>   -1.8970    1.0000 </r>
       <r>   -1.8535    1.0000 </r>
       <r>   -1.8252    1.0000 </r>
       <r>   -1.8223    1.0000 </r>
       <r>   -1.7575    1.0000 </r>
       <r>   -1.7348    1.0000 </r>
       <r>   -1.7329    1.0000 </r>
       <r>   -1.7052    1.0000 </r>
       <r>   -1.6451    1.0000 </r>
       <r>   -1.6447    1.0000 </r>
       <r>   -1.6169    1.0000 </r>
       <r>   -1.6057    1.0000 </r>
       <r>   -1.5514    1.0000 </r>
       <r>   -1.5413    1.0000 </r>
       <r>   -1.4425    1.0000 </r>
       <r>   -1.4402    1.0000 </r>
       <r>   -1.4097    1.0000 </r>
       <r>   -1.3670    1.0000 </r>
       <r>   -1.3486    1.0000 </r>
       <r>   -1.3355    1.0000 </r>
       <r>   -1.3212    1.0000 </r>
       <r>   -1.2376    1.0000 </r>
       <r>   -1.2123    1.0000 </r>
       <r>   -1.1721    1.0000 </r>
       <r>   -1.1415    1.0000 </r>
       <r>   -1.1092    1.0000 </r>
[...]
       <r>   -18.3797    -0.0788     4.0727 </r>
       <r>   -18.2827    -0.5172     4.0226 </r>
       <r>   -18.1857    -0.1940     4.0037 </r>
       <r>   -18.0886    -0.0349     4.0004 </r>
       <r>   -17.9916    -0.0035     4.0000 </r>
       <r>   -17.8946    -0.0002     4.0000 </r>
       <r>   -17.7976    -0.0000     4.0000 </r>
       <r>   -17.7006    -0.0000     4.0000 </r>
       <r>   -17.6036    -0.0000     4.0000 </r>
       <r>   -17.5066    -0.0000     4.0000 </r>
       <r>   -17.4096    -0.0000     4.0000 </r>
       <r>   -17.3126     0.0000     4.0000 </r>
       <r>   -17.2156     0.0000     4.0000 </r>
       <r>   -17.1185     0.0000     4.0000 </r>
       <r>   -17.0215     0.0000     4.0000 </r>
       <r>   -16.9245     0.0000     4.0000 </r>
       <r>   -16.8275     0.0000     4.0000 </r>
       <r>   -16.7305     0.0000     4.0000 </r>
       <r>   -16.6335     0.0000     4.0000 </r>
       <r>   -16.5365     0.0000     4.0000 </r>
       <r>   -16.4395     0.0000     4.0000 </r>
       <r>   -16.3425     0.0000     4.0000 </r>
       <r>   -16.2455     0.0000     4.0000 </r>
       <r>   -16.1484     0.0000     4.0000 </r>
       <r>   -16.0514     0.0000     4.0000 </r>
       <r>   -15.9544     0.0000     4.0000 </r>
       <r>   -15.8574     0.0000     4.0000 </r>
       <r>   -15.7604     0.0000     4.0000 </r>
       <r>   -15.6634     0.0000     4.0000 </r>
       <r>   -15.5664     0.0000     4.0000 </r>
       <r>   -15.4694     0.0000     4.0000 </r>
       <r>   -15.3724     0.0000     4.0000 </r>
       <r>   -15.2754     0.0000     4.0000 </r>
       <r>   -15.1783     0.0000     4.0000 </r>
       <r>   -15.0813     0.0000     4.0000 </r>
       <r>   -14.9843     0.0000     4.0000 </r>
       <r>   -14.8873     0.0000     4.0000 </r>
       <r>   -14.7903     0.0000     4.0000 </r>
       <r>   -14.6933     0.0000     4.0000 </r>
       <r>   -14.5963     0.0000     4.0000 </r>
       <r>   -14.4993     0.0000     4.0000 </r>
       <r>   -14.4023     0.0000     4.0000 </r>
       <r>   -14.3053     0.0000     4.0000 </r>
       <r>   -14.2082     0.0000     4.0000 </r>
       <r>   -14.1112     0.0000     4.0000 </r>
       <r>   -14.0142     0.0000     4.0000 </r>
       <r>   -13.9172     0.0000     4.0000 </r>
       <r>   -13.8202     0.0000     4.0000 </r>
       <r>   -13.7232     0.0000     4.0000 </r>
       <r>   -13.6262     0.0000     4.0000 </r>
       <r>   -13.5292     0.0000     4.0000 </r>
       <r>   -13.4322     0.0000     4.0000 </r>
       <r>   -13.3352     0.0000     4.0000 </r>
       <r>   -13.2381     0.0000     4.0000 </r>
       <r>   -13.1411     0.0000     4.0000 </r>
       <r>   -13.0441     0.0000     4.0000 </r>
       <r>   -12.9471     0.0000     4.0000 </r>
       <r>   -12.8501     0.0000     4.0000 </r>
       <r>   -12.7531     0.0000     4.0000 </r>
       <r>   -12.6561     0.0000     4.0000 </r>
       <r>   -12.5591     0.0000     4.0000 </r>
       <r>   -12.4621     0.0000     4.0000 </r>
       <r>   -12.3651     0.0000     4.0000 </r>
       <r>   -12.2680     0.0000     4.0000 </r>
       <r>   -12.1710     0.0000     4.0000 </r>
       <r>   -12.0740     0.0000     4.0000 </r>
       <r>   -11.9770     0.0000     4.0000 </r>
       <r>   -11.8800     0.0000     4.0000 </r>
       <r>   -11.7830     0.0000     4.0000 </r>
       <r>   -11.6860     0.0000     4.0000 </r>
       <r>   -11.5890     0.0000     4.0000 </r>
       <r>   -11.4920     0.0000     4.0000 </r>
       <r>   -11.3950     0.0000     4.0000 </r>
       <r>   -11.2979     0.0000     4.0000 </r>
       <r>   -11.2009     0.0000     4.0000 </r>
       <r>   -11.1039     0.0000     4.0000 </r>
       <r>   -11.0069     0.0000     4.0000 </r>
       <r>   -10.9099     0.0000     4.0000 </r>
       <r>   -10.8129     0.0000     4.0000 </r>
       <r>   -10.7159     0.0000     4.0000 </r>
       <r>   -10.6189     0.0000     4.0000 </r>
       <r>   -10.5219     0.0000     4.0000 </r>
       <r>   -10.4249     0.0000     4.0000 </r>
       <r>   -10.3278     0.0000     4.0000 </r>
       <r>   -10.2308    -0.0000     4.0000 </r>
       <r>   -10.1338    -0.0000     4.0000 </r>
       <r>   -10.0368    -0.0000     4.0000 </r>
       <r>    -9.9398    -0.0000     4.0000 </r>
       <r>    -9.8428    -0.0000     4.0000 </r>
       <r>    -9.7458    -0.0000     4.0000 </r>
       <r>    -9.6488    -0.0000     4.0000 </r>
       <r>    -9.5518    -0.0000     4.0000 </r>
       <r>    -9.4548    -0.0000     4.0000 </r>
       <r>    -9.3577    -0.0000     4.0000 </r>
       <r>    -9.2607    -0.0000     4.0000 </r>
       <r>    -9.1637    -0.0000     4.0000 </r>
       <r>    -9.0667    -0.0006     3.9999 </r>
       <r>    -8.9697    -0.0048     3.9995 </r>
       <r>    -8.8727    -0.0224     3.9973 </r>
       <r>    -8.7757    -0.0565     3.9918 </r>
       <r>    -8.6787    -0.0280     3.9891 </r>
       <r>    -8.5817     0.3245     4.0206 </r>
       <r>    -8.4847     1.1842     4.1355 </r>
       <r>    -8.3876     1.9283     4.3225 </r>
       <r>    -8.2906     1.7560     4.4929 </r>
       <r>    -8.1936     1.5244     4.6407 </r>
       <r>    -8.0966     2.2910     4.8630 </r>
       <r>    -7.9996     3.0349     5.1574 </r>
       <r>    -7.9026     2.6122     5.4108 </r>
       <r>    -7.8056     1.9323     5.5983 </r>
       <r>    -7.7086     2.6176     5.8522 </r>
       <r>    -7.6116     4.4428     6.2832 </r>
       <r>    -7.5146     5.7340     6.8395 </r>
       <r>    -7.4175     5.9442     7.4161 </r>
       <r>    -7.3205     5.3900     7.9390 </r>
       <r>    -7.2235     3.6313     8.2913 </r>
       <r>    -7.1265     1.8275     8.4685 </r>
       <r>    -7.0295     3.2392     8.7828 </r>
       <r>    -6.9325     7.9819     9.5571 </r>
       <r>    -6.8355    11.1543    10.6392 </r>
       <r>    -6.7385     9.5410    11.5647 </r>
       <r>    -6.6415     6.7566    12.2202 </r>
       <r>    -6.5445     7.1271    12.9116 </r>
       <r>    -6.4474     9.7574    13.8582 </r>
       <r>    -6.3504    11.9617    15.0186 </r>
       <r>    -6.2534    14.0114    16.3778 </r>
       <r>    -6.1564    17.3065    18.0567 </r>
       <r>    -6.0594    20.3445    20.0304 </r>
       <r>    -5.9624    21.7627    22.1416 </r>
       <r>    -5.8654    24.0725    24.4768 </r>
       <r>    -5.7684    28.7573    27.2666 </r>
       <r>    -5.6714    33.4296    30.5096 </r>
       <r>    -5.5744    36.4723    34.0478 </r>
       <r>    -5.4773    39.8758    37.9161 </r>
       <r>    -5.3803    45.3750    42.3179 </r>
       <r>    -5.2833    50.7143    47.2377 </r>
       <r>    -5.1863    54.7551    52.5495 </r>
       <r>    -5.0893    59.6560    58.3368 </r>
       <r>    -4.9923    66.1827    64.7571 </r>
       <r>    -4.8953    70.9557    71.6406 </r>
       <r>    -4.7983    69.8059    78.4124 </r>
       <r>    -4.7013    65.2432    84.7417 </r>
       <r>    -4.6043    65.9959    91.1439 </r>
       <r>    -4.5072    76.0769    98.5242 </r>
       <r>    -4.4102    85.3386   106.8029 </r>
       <r>    -4.3132    82.7175   114.8273 </r>
       <r>    -4.2162    71.8629   121.7987 </r>
       <r>    -4.1192    61.3121   127.7466 </r>
       <r>    -4.0222    56.0477   133.1838 </r>
       <r>    -3.9252    56.2858   138.6441 </r>
       <r>    -3.8282    60.1843   144.4825 </r>
       <r>    -3.7312    66.7946   150.9623 </r>
       <r>    -3.6342    71.0726   157.8570 </r>
       <r>    -3.5371    70.2308   164.6701 </r>
       <r>    -3.4401    71.4155   171.5981 </r>
       <r>    -3.3431    77.2018   179.0875 </r>
       <r>    -3.2461    82.1023   187.0522 </r>
       <r>    -3.1491    84.6212   195.2613 </r>
       <r>    -3.0521    83.1053   203.3234 </r>
       <r>    -2.9551    78.8815   210.9757 </r>
       <r>    -2.8581    79.2744   218.6661 </r>
       <r>    -2.7611    86.0521   227.0140 </r>
       <r>    -2.6641    95.4510   236.2737 </r>
       <r>    -2.5670   105.5648   246.5146 </r>
       <r>    -2.4700   114.0432   257.5779 </r>
       <r>    -2.3730   117.5627   268.9827 </r>
       <r>    -2.2760   116.8799   280.3212 </r>
       <r>    -2.1790   113.0562   291.2888 </r>
       <r>    -2.0820   108.0200   301.7678 </r>
       <r>    -1.9850   107.2281   312.1700 </r>
       <r>    -1.8880   107.8427   322.6318 </r>
       <r>    -1.7910   100.4794   332.3793 </r>
       <r>    -1.6940    85.2660   340.6510 </r>
       <r>    -1.5969    70.3231   347.4730 </r>
       <r>    -1.4999    63.9603   353.6778 </r>
       <r>    -1.4029    67.9700   360.2716 </r>
       <r>    -1.3059    75.2528   367.5718 </r>
       <r>    -1.2089    81.8790   375.5149 </r>
       <r>    -1.1119    89.8607   384.2323 </r>
       <r>    -1.0149    96.3339   393.5776 </r>
       <r>    -0.9179    94.6567   402.7603 </r>
       <r>    -0.8209    84.4018   410.9481 </r>
       <r>    -0.7239    75.0889   418.2325 </r>
       <r>    -0.6268    74.5711   425.4666 </r>
       <r>    -0.5298    77.8378   433.0177 </r>
       <r>    -0.4328    79.5404   440.7339 </r>
       <r>    -0.3358    82.1557   448.7038 </r>
       <r>    -0.2388    85.6452   457.0123 </r>
       <r>    -0.1418    85.4326   465.3001 </r>
       <r>    -0.0448    80.7823   473.1368 </r>
       <r>     0.0522    76.6751   480.5750 </r>
       <r>     0.1492    76.0810   487.9556 </r>
       <r>     0.2462    77.5664   495.4804 </r>
       <r>     0.3433    80.8377   503.3224 </r>
       <r>     0.4403    87.9284   511.8524 </r>
       <r>     0.5373    99.9129   521.5449 </r>
       <r>     0.6343   111.8258   532.3931 </r>
       <r>     0.7313   115.6324   543.6106 </r>
       <r>     0.8283   109.7802   554.2604 </r>
       <r>     0.9253    97.2299   563.6927 </r>
       <r>     1.0223    82.6039   571.7061 </r>
       <r>     1.1193    69.1993   578.4191 </r>
       <r>     1.2163    53.5866   583.6176 </r>
       <r>     1.3134    35.3554   587.0474 </r>
       <r>     1.4104    21.1571   589.0998 </r>
       <r>     1.5074    15.0650   590.5613 </r>
       <r>     1.6044    14.9863   592.0151 </r>
       <r>     1.7014    16.4771   593.6135 </r>
       <r>     1.7984    17.2314   595.2852 </r>
       <r>     1.8954    16.7657   596.9116 </r>
       <r>     1.9924    16.0726   598.4708 </r>
       <r>     2.0894    18.0355   600.2204 </r>
       <r>     2.1864    22.5513   602.4081 </r>
       <r>     2.2835    24.2714   604.7627 </r>
       <r>     2.3805    20.6878   606.7696 </r>
       <r>     2.4775    15.8093   608.3033 </r>
       <r>     2.5745    13.6663   609.6291 </r>
       <r>     2.6715    14.0679   610.9938 </r>
       <r>     2.7685    13.9625   612.3483 </r>
       <r>     2.8655    12.6914   613.5795 </r>
       <r>     2.9625    13.4620   614.8854 </r>
       <r>     3.0595    16.7900   616.5142 </r>
       <r>     3.1565    19.0715   618.3643 </r>
       <r>     3.2536    18.3738   620.1468 </r>
       <r>     3.3506    17.1518   621.8107 </r>
       <r>     3.4476    17.0975   623.4693 </r>
       <r>     3.5446    16.5199   625.0719 </r>
       <r>     3.6416    15.6761   626.5926 </r>
       <r>     3.7386    16.5032   628.1936 </r>
       <r>     3.8356    18.0248   629.9422 </r>
       <r>     3.9326    17.6438   631.6538 </r>
       <r>     4.0296    15.2392   633.1322 </r>
       <r>     4.1266    14.1517   634.5050 </r>
       <r>     4.2237    16.6014   636.1155 </r>
       <r>     4.3207    18.4710   637.9074 </r>
       <r>     4.4177    15.8030   639.4405 </r>
       <r>     4.5147    12.6554   640.6682 </r>
       <r>     4.6117    13.7436   642.0014 </r>
       <r>     4.7087    16.2883   643.5816 </r>
       <r>     4.8057    16.4499   645.1774 </r>
       <r>     4.9027    15.3507   646.6665 </r>
       <r>     4.9997    13.8159   648.0068 </r>
       <r>     5.0967    11.9930   649.1702 </r>
       <r>     5.1938    11.9862   650.3330 </r>
       <r>     5.2908    14.6099   651.7503 </r>
       <r>     5.3878    17.6366   653.4613 </r>
       <r>     5.4848    17.9376   655.2014 </r>
       <r>     5.5818    15.3094   656.6865 </r>
       <r>     5.6788    12.3947   657.8890 </r>
       <r>     5.7758    10.5662   658.9140 </r>
       <r>     5.8728     9.8226   659.8669 </r>
       <r>     5.9698    10.4693   660.8825 </r>
       <r>     6.0668    11.3434   661.9829 </r>
       <r>     6.1639    10.3330   662.9853 </r>
       <r>     6.2609     7.1379   663.6778 </r>
       <r>     6.3579     3.2545   663.9935 </r>
       <r>     6.4549     0.5938   664.0511 </r>
       <r>     6.5519    -0.2563   664.0262 </r>
       <r>     6.6489    -0.2001   664.0068 </r>
       <r>     6.7459    -0.0594   664.0011 </r>
       <r>     6.8429    -0.0098   664.0001 </r>
       <r>     6.9399    -0.0010   664.0000 </r>
       <r>     7.0369    -0.0001   664.0000 </r>
       <r>     7.1340    -0.0000   664.0000 </r>
       <r>     7.2310    -0.0000   664.0000 </r>
       <r>     7.3280    -0.0000   664.0000 </r>
       <r>     7.4250    -0.0000   664.0000 </r>
       <r>     7.5220    -0.0000   664.0000 </r>
       <r>     7.6190     0.0000   664.0000 </r>
       <r>     7.7160     0.0000   664.0000 </r>
       <r>     7.8130     0.0000   664.0000 </r>
       <r>     7.9100     0.0000   664.0000 </r>
       <r>     8.0070     0.0000   664.0000 </r>
       <r>     8.1041     0.0000   664.0000 </r>
       <r>     8.2011     0.0000   664.0000 </r>
       <r>     8.2981     0.0000   664.0000 </r>
      </set>
     </set>
    </array>
   </total>
  </dos>
 </calculation>
 <structure name="finalpos" >
  <crystal>
   <varray name="basis" >
    <v>       8.46376883       0.00000000      -0.00000000 </v>
    <v>      -4.23188442       7.32983882       0.00000000 </v>
    <v>       0.00000000       0.00000000      34.55319157 </v>
   </varray>
   <i name="volume">   2143.61301901 </i>
   <varray name="rec_basis" >
    <v>       0.11815067       0.06821432      -0.00000000 </v>
    <v>      -0.00000000       0.13642865       0.00000000 </v>
    <v>       0.00000000       0.00000000       0.02894089 </v>
   </varray>
  </crystal>
  <varray name="positions" >
   <v>       0.11111111       0.22222222       0.33333333 </v>
   <v>       0.00000000       0.00000000       0.46666667 </v>
   <v>       0.22222222       0.11111111       0.40000000 </v>
   <v>       0.11111111       0.22222222       0.53333333 </v>
   <v>       0.32634556       0.00825929       0.66789914 </v>
   <v>       0.22222222       0.11111111       0.60000000 </v>
   <v>       0.11111111       0.55555556       0.33333333 </v>
   <v>       0.00000000       0.33333333       0.46666667 </v>
   <v>       0.22222222       0.44444444       0.40000000 </v>
   <v>       0.11111111       0.55555556       0.53333333 </v>
   <v>       0.33472958       0.33114667       0.66691376 </v>
   <v>       0.22222222       0.44444444       0.60000000 </v>
   <v>       0.11111111       0.88888889       0.33333333 </v>
   <v>       0.00000000       0.66666667       0.46666667 </v>
   <v>       0.22222222       0.77777778       0.40000000 </v>
   <v>       0.11111111       0.88888889       0.53333333 </v>
   <v>       0.34170937       0.65713524       0.66801217 </v>
   <v>       0.22222222       0.77777778       0.60000000 </v>
   <v>       0.44444444       0.22222222       0.33333333 </v>
   <v>       0.33333333       0.00000000       0.46666667 </v>
   <v>       0.55555556       0.11111111       0.40000000 </v>
   <v>       0.44444444       0.22222222       0.53333333 </v>
   <v>       0.68033628       0.00666334       0.66790972 </v>
   <v>       0.55555556       0.11111111       0.60000000 </v>
   <v>       0.44444444       0.55555556       0.33333333 </v>
   <v>       0.33333333       0.33333333       0.46666667 </v>
   <v>       0.55555556       0.44444444       0.40000000 </v>
   <v>       0.44444444       0.55555556       0.53333333 </v>
   <v>       0.66385937       0.33488230       0.66657911 </v>
   <v>       0.55555556       0.44444444       0.60000000 </v>
   <v>       0.44444444       0.88888889       0.33333333 </v>
   <v>       0.33333333       0.66666667       0.46666667 </v>
   <v>       0.55555556       0.77777778       0.40000000 </v>
   <v>       0.44444444       0.88888889       0.53333333 </v>
   <v>       0.66759270       0.66389759       0.66689867 </v>
   <v>       0.55555556       0.77777778       0.60000000 </v>
   <v>       0.77777778       0.22222222       0.33333333 </v>
   <v>       0.66666667       0.00000000       0.46666667 </v>
   <v>       0.88888889       0.11111111       0.40000000 </v>
   <v>       0.77777778       0.22222222       0.53333333 </v>
   <v>       0.99854271       0.00019607       0.66697243 </v>
   <v>       0.88888889       0.11111111       0.60000000 </v>
   <v>       0.77777778       0.55555556       0.33333333 </v>
   <v>       0.66666667       0.33333333       0.46666667 </v>
   <v>       0.88888889       0.44444444       0.40000000 </v>
   <v>       0.77777778       0.55555556       0.53333333 </v>
   <v>       0.99209973       0.31819067       0.66788728 </v>
   <v>       0.88888889       0.44444444       0.60000000 </v>
   <v>       0.77777778       0.88888889       0.33333333 </v>
   <v>       0.66666667       0.66666667       0.46666667 </v>
   <v>       0.88888889       0.77777778       0.40000000 </v>
   <v>       0.77777778       0.88888889       0.53333333 </v>
   <v>       0.99030109       0.67231921       0.66797623 </v>
   <v>       0.88888889       0.77777778       0.60000000 </v>
   <v>       0.44917478       0.89646429       0.69982492 </v>
   <v>       0.10222104       0.54935079       0.69982088 </v>
  </varray>
  <varray name="selective"  type="logical" >
   <v type="logical" >  F  F  F </v>
   <v type="logical" >  F  F  F </v>
   <v type="logical" >  F  F  F </v>
   <v type="logical" >  F  F  F </v>
   <v type="logical" >  T  T  T </v>
   <v type="logical" >  F  F  F </v>
   <v type="logical" >  F  F  F </v>
   <v type="logical" >  F  F  F </v>
   <v type="logical" >  F  F  F </v>
   <v type="logical" >  F  F  F </v>
   <v type="logical" >  T  T  T </v>
   <v type="logical" >  F  F  F </v>
   <v type="logical" >  F  F  F </v>
   <v type="logical" >  F  F  F </v>
   <v type="logical" >  F  F  F </v>
   <v type="logical" >  F  F  F </v>
   <v type="logical" >  T  T  T </v>
   <v type="logical" >  F  F  F </v>
   <v type="logical" >  F  F  F </v>
   <v type="logical" >  F  F  F </v>
   <v type="logical" >  F  F  F </v>
   <v type="logical" >  F  F  F </v>
   <v type="logical" >  T  T  T </v>
   <v type="logical" >  F  F  F </v>
   <v type="logical" >  F  F  F </v>
   <v type="logical" >  F  F  F </v>
   <v type="logical" >  F  F  F </v>
   <v type="logical" >  F  F  F </v>
   <v type="logical" >  T  T  T </v>
   <v type="logical" >  F  F  F </v>
   <v type="logical" >  F  F  F </v>
   <v type="logical" >  F  F  F </v>
   <v type="logical" >  F  F  F </v>
   <v type="logical" >  F  F  F </v>
   <v type="logical" >  T  T  T </v>
   <v type="logical" >  F  F  F </v>
   <v type="logical" >  F  F  F </v>
   <v type="logical" >  F  F  F </v>
   <v type="logical" >  F  F  F </v>
   <v type="logical" >  F  F  F </v>
   <v type="logical" >  T  T  T </v>
   <v type="logical" >  F  F  F </v>
   <v type="logical" >  F  F  F </v>
   <v type="logical" >  F  F  F </v>
   <v type="logical" >  F  F  F </v>
   <v type="logical" >  F  F  F </v>
   <v type="logical" >  T  T  T </v>
   <v type="logical" >  F  F  F </v>
   <v type="logical" >  F  F  F </v>
   <v type="logical" >  F  F  F </v>
   <v type="logical" >  F  F  F </v>
   <v type="logical" >  F  F  F </v>
   <v type="logical" >  T  T  T </v>
   <v type="logical" >  F  F  F </v>
   <v type="logical" >  T  T  T </v>
   <v type="logical" >  T  T  T </v>
  </varray>
  <nose>
   <v>      -3.00000000       0.00000000       0.00010000       0.00010000 </v>
  </nose>
 </structure>
</modeling>
