<?xml version="1.0" encoding="ISO-8859-1"?>
<modeling>
 <generator>
  <i name="program" type="string">vasp </i>
  <i name="version" type="string">6.1.2  </i>
  <i name="subversion" type="string">22Jul20 (build Nov  4 2022 18:23:20) complex                          parallel </i>
  <i name="platform" type="string">LinuxPGI </i>
  <i name="date" type="string">2024 01 31 </i>
  <i name="time" type="string">00:19:54 </i>
 </generator>
 <incar>
  <i type="int" name="IBRION">    -1</i>
  <i name="EDIFFG">     -0.03000000</i>
  <i type="int" name="NSW">     0</i>
  <i type="int" name="ISIF">     0</i>
  <i type="int" name="ISYM">     0</i>
  <i name="SYMPREC">      0.00000000</i>
  <i name="ENCUT">    350.00000000</i>
  <i type="string" name="LREAL"> Auto</i>
  <i type="logical" name="LWAVE"> F  </i>
  <i type="int" name="NCORE">     4</i>
  <i type="logical" name="LAECHG"> T  </i>
  <i type="string" name="GGA"> RP</i>
 </incar>
 <structure name="primitive_cell" >
  <crystal>
   <varray name="basis" >
    <v>       8.46376883       0.00000000      -0.00000000 </v>
    <v>      -4.23188442       7.32983882       0.00000000 </v>
    <v>       0.00000000       0.00000000      34.55319157 </v>
   </varray>
   <i name="volume">   2143.61301901 </i>
   <varray name="rec_basis" >
    <v>       0.11815067       0.06821432      -0.00000000 </v>
    <v>      -0.00000000       0.13642865       0.00000000 </v>
    <v>       0.00000000       0.00000000       0.02894089 </v>
   </varray>
  </crystal>
  <varray name="positions" >
   <v>       0.11111111       0.22222222       0.33333333 </v>
   <v>       0.00000000       0.00000000       0.46666667 </v>
   <v>       0.22222222       0.11111111       0.40000000 </v>
   <v>       0.11111111       0.22222222       0.53333333 </v>
   <v>       0.32905648       0.00701019       0.66670245 </v>
   <v>       0.22222222       0.11111111       0.60000000 </v>
   <v>       0.11111111       0.55555556       0.33333333 </v>
   <v>       0.00000000       0.33333333       0.46666667 </v>
   <v>       0.22222222       0.44444444       0.40000000 </v>
   <v>       0.11111111       0.55555556       0.53333333 </v>
   <v>       0.34356964       0.33647565       0.66683704 </v>
   <v>       0.22222222       0.44444444       0.60000000 </v>
   <v>       0.11111111       0.88888889       0.33333333 </v>
   <v>       0.00000000       0.66666667       0.46666667 </v>
   <v>       0.22222222       0.77777778       0.40000000 </v>
   <v>       0.11111111       0.88888889       0.53333333 </v>
   <v>       0.34149332       0.65938739       0.66706570 </v>
   <v>       0.22222222       0.77777778       0.60000000 </v>
   <v>       0.44444444       0.22222222       0.33333333 </v>
   <v>       0.33333333       0.00000000       0.46666667 </v>
   <v>       0.55555556       0.11111111       0.40000000 </v>
   <v>       0.44444444       0.22222222       0.53333333 </v>
   <v>       0.67626932       0.00440516       0.66690211 </v>
   <v>       0.55555556       0.11111111       0.60000000 </v>
   <v>       0.44444444       0.55555556       0.33333333 </v>
   <v>       0.33333333       0.33333333       0.46666667 </v>
   <v>       0.55555556       0.44444444       0.40000000 </v>
   <v>       0.44444444       0.55555556       0.53333333 </v>
   <v>       0.65851675       0.32170799       0.66669630 </v>
   <v>       0.55555556       0.44444444       0.60000000 </v>
   <v>       0.44444444       0.88888889       0.33333333 </v>
   <v>       0.33333333       0.66666667       0.46666667 </v>
   <v>       0.55555556       0.77777778       0.40000000 </v>
   <v>       0.44444444       0.88888889       0.53333333 </v>
   <v>       0.66130724       0.67166771       0.66674252 </v>
   <v>       0.55555556       0.77777778       0.60000000 </v>
   <v>       0.77777778       0.22222222       0.33333333 </v>
   <v>       0.66666667       0.00000000       0.46666667 </v>
   <v>       0.88888889       0.11111111       0.40000000 </v>
   <v>       0.77777778       0.22222222       0.53333333 </v>
   <v>       0.99374413       0.98945091       0.66684632 </v>
   <v>       0.88888889       0.11111111       0.60000000 </v>
   <v>       0.77777778       0.55555556       0.33333333 </v>
   <v>       0.66666667       0.33333333       0.46666667 </v>
   <v>       0.88888889       0.44444444       0.40000000 </v>
   <v>       0.77777778       0.55555556       0.53333333 </v>
   <v>       0.98349364       0.32409947       0.66712136 </v>
   <v>       0.88888889       0.44444444       0.60000000 </v>
   <v>       0.77777778       0.88888889       0.33333333 </v>
   <v>       0.66666667       0.66666667       0.46666667 </v>
   <v>       0.88888889       0.77777778       0.40000000 </v>
   <v>       0.77777778       0.88888889       0.53333333 </v>
   <v>       0.00610291       0.68197252       0.66725719 </v>
   <v>       0.88888889       0.77777778       0.60000000 </v>
   <v>       0.44877946       0.89577206       0.70060686 </v>
   <v>       0.11064594       0.55491508       0.69971237 </v>
   <v>       0.76910804       0.55246132       0.70063367 </v>
   <v>       0.11249974       0.21646608       0.70069995 </v>
  </varray>
 </structure>
 <varray name="primitive_index" >
  <v type="int" >        1 </v>
  <v type="int" >        2 </v>
  <v type="int" >        3 </v>
  <v type="int" >        4 </v>
  <v type="int" >        5 </v>
  <v type="int" >        6 </v>
  <v type="int" >        7 </v>
  <v type="int" >        8 </v>
  <v type="int" >        9 </v>
  <v type="int" >       10 </v>
  <v type="int" >       11 </v>
  <v type="int" >       12 </v>
  <v type="int" >       13 </v>
  <v type="int" >       14 </v>
  <v type="int" >       15 </v>
  <v type="int" >       16 </v>
  <v type="int" >       17 </v>
  <v type="int" >       18 </v>
  <v type="int" >       19 </v>
  <v type="int" >       20 </v>
  <v type="int" >       21 </v>
  <v type="int" >       22 </v>
  <v type="int" >       23 </v>
  <v type="int" >       24 </v>
  <v type="int" >       25 </v>
  <v type="int" >       26 </v>
  <v type="int" >       27 </v>
  <v type="int" >       28 </v>
  <v type="int" >       29 </v>
  <v type="int" >       30 </v>
  <v type="int" >       31 </v>
  <v type="int" >       32 </v>
  <v type="int" >       33 </v>
  <v type="int" >       34 </v>
  <v type="int" >       35 </v>
  <v type="int" >       36 </v>
  <v type="int" >       37 </v>
  <v type="int" >       38 </v>
  <v type="int" >       39 </v>
  <v type="int" >       40 </v>
  <v type="int" >       41 </v>
  <v type="int" >       42 </v>
  <v type="int" >       43 </v>
  <v type="int" >       44 </v>
  <v type="int" >       45 </v>
  <v type="int" >       46 </v>
  <v type="int" >       47 </v>
  <v type="int" >       48 </v>
  <v type="int" >       49 </v>
  <v type="int" >       50 </v>
  <v type="int" >       51 </v>
  <v type="int" >       52 </v>
  <v type="int" >       53 </v>
  <v type="int" >       54 </v>
  <v type="int" >       55 </v>
  <v type="int" >       56 </v>
  <v type="int" >       57 </v>
  <v type="int" >       58 </v>
 </varray>
 <kpoints>
  <generation param="Monkhorst-Pack">
   <v type="int" name="divisions">       5        5        1 </v>
   <v name="usershift">      0.00000000       0.00000000       0.00000000 </v>
   <v name="genvec1">      0.20000000       0.00000000       0.00000000 </v>
   <v name="genvec2">      0.00000000       0.20000000       0.00000000 </v>
   <v name="genvec3">      0.00000000       0.00000000       1.00000000 </v>
   <v name="shift">      0.00000000       0.00000000       0.00000000 </v>
  </generation>
  <varray name="kpointlist" >
   <v>       0.00000000       0.00000000       0.00000000 </v>
   <v>       0.20000000       0.00000000       0.00000000 </v>
   <v>       0.20000000      -0.20000000       0.00000000 </v>
   <v>       0.00000000      -0.20000000       0.00000000 </v>
   <v>       0.40000000       0.00000000       0.00000000 </v>
   <v>       0.40000000      -0.40000000       0.00000000 </v>
   <v>       0.00000000      -0.40000000       0.00000000 </v>
   <v>       0.20000000       0.20000000       0.00000000 </v>
   <v>       0.40000000      -0.20000000       0.00000000 </v>
   <v>       0.20000000      -0.40000000       0.00000000 </v>
   <v>       0.40000000       0.20000000       0.00000000 </v>
   <v>      -0.40000000      -0.40000000       0.00000000 </v>
   <v>       0.20000000       0.40000000       0.00000000 </v>
  </varray>
  <varray name="weights" >
   <v>       0.04000000 </v>
   <v>       0.08000000 </v>
   <v>       0.08000000 </v>
   <v>       0.08000000 </v>
   <v>       0.08000000 </v>
   <v>       0.08000000 </v>
   <v>       0.08000000 </v>
   <v>       0.08000000 </v>
   <v>       0.08000000 </v>
   <v>       0.08000000 </v>
   <v>       0.08000000 </v>
   <v>       0.08000000 </v>
   <v>       0.08000000 </v>
  </varray>
 </kpoints>
 <parameters>
  <separator name="general" >
   <i type="string" name="SYSTEM">unknown system</i>
   <i type="logical" name="LCOMPAT"> F  </i>
  </separator>
  <separator name="electronic" >
   <i type="string" name="PREC">normal</i>
   <i name="ENMAX">    350.00000000</i>
   <i name="ENAUG">    605.39200000</i>
   <i name="EDIFF">      0.00010000</i>
   <i type="int" name="IALGO">    38</i>
   <i type="int" name="IWAVPR">    10</i>
   <i type="int" name="NBANDS">   338</i>
   <i type="int" name="NBANDSLOW">    -1</i>
   <i type="int" name="NBANDSHIGH">    -1</i>
   <i name="NELECT">    564.00000000</i>
   <i type="int" name="TURBO">     0</i>
   <i type="int" name="IRESTART">     0</i>
   <i type="int" name="NREBOOT">     0</i>
   <i type="int" name="NMIN">     0</i>
   <i name="EREF">      0.00000000</i>
   <separator name="electronic smearing" >
    <i type="int" name="ISMEAR">     1</i>
    <i name="SIGMA">      0.20000000</i>
    <i name="KSPACING">      0.50000000</i>
    <i type="logical" name="KGAMMA"> T  </i>
    <i type="logical" name="KBLOWUP"> T  </i>
   </separator>
   <separator name="electronic projectors" >
    <i type="logical" name="LREAL"> T  </i>
    <v name="ROPT">     -0.00050000     -0.00050000</v>
    <i type="int" name="LMAXPAW">  -100</i>
    <i type="int" name="LMAXMIX">     2</i>
    <i type="logical" name="NLSPLINE"> F  </i>
   </separator>
   <separator name="electronic startup" >
    <i type="int" name="ISTART">     0</i>
    <i type="int" name="ICHARG">     2</i>
    <i type="int" name="INIWAV">     1</i>
   </separator>
   <separator name="electronic spin" >
    <i type="int" name="ISPIN">     1</i>
    <i type="logical" name="LNONCOLLINEAR"> F  </i>
    <v name="MAGMOM">      1.00000000      1.00000000      1.00000000      1.00000000      1.00000000      1.00000000      1.00000000      1.00000000      1.00000000      1.00000000      1.00000000      1.00000000      1.00000000      1.00000000      1.00000000      1.00000000      1.00000000      1.00000000      1.00000000      1.00000000
      1.00000000      1.00000000      1.00000000      1.00000000      1.00000000      1.00000000      1.00000000      1.00000000      1.00000000      1.00000000      1.00000000      1.00000000      1.00000000      1.00000000      1.00000000      1.00000000      1.00000000      1.00000000      1.00000000      1.00000000
      1.00000000      1.00000000      1.00000000      1.00000000      1.00000000      1.00000000      1.00000000      1.00000000      1.00000000      1.00000000      1.00000000      1.00000000      1.00000000      1.00000000      1.00000000      1.00000000      1.00000000      1.00000000</v>
    <i name="NUPDOWN">     -1.00000000</i>
    <i type="logical" name="LSORBIT"> F  </i>
    <v name="SAXIS">      0.00000000      0.00000000      1.00000000</v>
    <i type="logical" name="LSPIRAL"> F  </i>
    <v name="QSPIRAL">      0.00000000      0.00000000      0.00000000</v>
    <i type="logical" name="LZEROZ"> F  </i>
   </separator>
   <separator name="electronic exchange-correlation" >
    <i type="logical" name="LASPH"> F  </i>
    <i type="logical" name="LMETAGGA"> F  </i>
   </separator>
   <separator name="electronic convergence" >
    <i type="int" name="NELM">    60</i>
    <i type="int" name="NELMDL">     0</i>
    <i type="int" name="NELMIN">     2</i>
    <i name="ENINI">    350.00000000</i>
    <separator name="electronic convergence detail" >
     <i type="logical" name="LDIAG"> T  </i>
     <i type="logical" name="LSUBROT"> F  </i>
     <i name="WEIMIN">      0.00000000</i>
     <i name="EBREAK">      0.00000007</i>
     <i name="DEPER">      0.30000000</i>
     <i type="int" name="NRMM">     4</i>
     <i name="TIME">      0.40000000</i>
    </separator>
   </separator>
   <separator name="electronic mixer" >
    <i name="AMIX">      0.40000000</i>
    <i name="BMIX">      1.00000000</i>
    <i name="AMIN">      0.10000000</i>
    <i name="AMIX_MAG">      1.60000000</i>
    <i name="BMIX_MAG">      1.00000000</i>
    <separator name="electronic mixer details" >
     <i type="int" name="IMIX">     4</i>
     <i type="logical" name="MIXFIRST"> F  </i>
     <i type="int" name="MAXMIX">   -45</i>
     <i name="WC">    100.00000000</i>
     <i type="int" name="INIMIX">     1</i>
     <i type="int" name="MIXPRE">     1</i>
     <i type="int" name="MREMOVE">     5</i>
    </separator>
   </separator>
   <separator name="electronic dipolcorrection" >
    <i type="logical" name="LDIPOL"> F  </i>
    <i type="logical" name="LMONO"> F  </i>
    <i type="int" name="IDIPOL">     0</i>
    <i name="EPSILON">      1.00000000</i>
    <v name="DIPOL">   -100.00000000   -100.00000000   -100.00000000</v>
    <i name="EFIELD">      0.00000000</i>
   </separator>
  </separator>
  <separator name="grids" >
   <i type="int" name="NGX">    40</i>
   <i type="int" name="NGY">    40</i>
   <i type="int" name="NGZ">   160</i>
   <i type="int" name="NGXF">    80</i>
   <i type="int" name="NGYF">    80</i>
   <i type="int" name="NGZF">   320</i>
   <i type="logical" name="ADDGRID"> F  </i>
  </separator>
  <separator name="ionic" >
   <i type="int" name="NSW">     0</i>
   <i type="int" name="IBRION">    -1</i>
   <i type="int" name="MDALGO">     0</i>
   <i type="int" name="ISIF">     0</i>
   <i name="PSTRESS">      0.00000000</i>
   <i name="EDIFFG">     -0.03000000</i>
   <i type="int" name="NFREE">     0</i>
   <i name="POTIM">      0.50000000</i>
   <i name="SMASS">     -3.00000000</i>
   <i name="SCALEE">      1.00000000</i>
  </separator>
  <separator name="ionic md" >
   <i name="TEBEG">      0.00010000</i>
   <i name="TEEND">      0.00010000</i>
   <i type="int" name="NBLOCK">     1</i>
   <i type="int" name="KBLOCK">     1</i>
   <i type="int" name="NPACO">   256</i>
   <i name="APACO">     16.00000000</i>
  </separator>
  <separator name="symmetry" >
   <i type="int" name="ISYM">     0</i>
   <i name="SYMPREC">      0.00000000</i>
  </separator>
  <separator name="dos" >
   <i type="int" name="LORBIT">     0</i>
   <v name="RWIGS">     -1.00000000     -1.00000000</v>
   <i type="int" name="NEDOS">   301</i>
   <i name="EMIN">     10.00000000</i>
   <i name="EMAX">    -10.00000000</i>
   <i name="EFERMI">      0.00000000</i>
  </separator>
  <separator name="writing" >
   <i type="int" name="NWRITE">     2</i>
   <i type="logical" name="LWAVE"> F  </i>
   <i type="logical" name="LDOWNSAMPLE"> F  </i>
   <i type="logical" name="LCHARG"> T  </i>
   <i type="logical" name="LPARD"> F  </i>
   <i type="logical" name="LVTOT"> F  </i>
   <i type="logical" name="LVHAR"> F  </i>
   <i type="logical" name="LELF"> F  </i>
   <i type="logical" name="LOPTICS"> F  </i>
   <v name="STM">      0.00000000      0.00000000      0.00000000      0.00000000      0.00000000      0.00000000      0.00000000</v>
  </separator>
  <separator name="performance" >
   <i type="int" name="NPAR">     2</i>
   <i type="int" name="NSIM">     4</i>
   <i type="int" name="NBLK">    -1</i>
   <i type="logical" name="LPLANE"> T  </i>
   <i type="logical" name="LSCALAPACK"> T  </i>
   <i type="logical" name="LSCAAWARE"> F  </i>
   <i type="logical" name="LSCALU"> F  </i>
   <i type="logical" name="LASYNC"> F  </i>
   <i type="logical" name="LORBITALREAL"> F  </i>
  </separator>
  <separator name="miscellaneous" >
   <i type="int" name="IDIOT">     3</i>
   <i type="int" name="PHON_NSTRUCT">    -1</i>
   <i type="logical" name="LMUSIC"> F  </i>
   <v name="POMASS">    195.08000000     16.00000000</v>
   <v name="DARWINR">      0.00000000      0.00000000</v>
   <v name="DARWINV">      1.00000000      1.00000000</v>
   <i type="logical" name="LCORR"> T  </i>
  </separator>
  <i type="logical" name="GGA_COMPAT"> T  </i>
  <i type="logical" name="LBERRY"> F  </i>
  <i type="int" name="ICORELEVEL">     0</i>
  <i type="logical" name="LDAU"> F  </i>
  <i type="int" name="I_CONSTRAINED_M">     0</i>
  <separator name="electronic exchange-correlation" >
   <i type="string" name="GGA">RP</i>
   <i type="int" name="VOSKOWN">     0</i>
   <i type="logical" name="LHFCALC"> F  </i>
   <i type="string" name="PRECFOCK"></i>
   <i type="logical" name="LSYMGRAD"> F  </i>
   <i type="logical" name="LHFONE"> F  </i>
   <i type="logical" name="LRHFCALC"> F  </i>
   <i type="logical" name="LTHOMAS"> F  </i>
   <i type="logical" name="LMODELHF"> F  </i>
   <i type="logical" name="LFOCKACE"> F  </i>
   <i name="ENCUT4O">     -1.00000000</i>
   <i type="int" name="EXXOEP">     0</i>
   <i type="int" name="FOURORBIT">     0</i>
   <i name="AEXX">      0.00000000</i>
   <i name="HFALPHA">      0.00000000</i>
   <i name="MCALPHA">      0.00000000</i>
   <i name="ALDAX">      1.00000000</i>
   <i name="AGGAX">      1.00000000</i>
   <i name="ALDAC">      1.00000000</i>
   <i name="AGGAC">      1.00000000</i>
   <i type="int" name="NKREDX">     1</i>
   <i type="int" name="NKREDY">     1</i>
   <i type="int" name="NKREDZ">     1</i>
   <i type="logical" name="SHIFTRED"> F  </i>
   <i type="logical" name="ODDONLY"> F  </i>
   <i type="logical" name="EVENONLY"> F  </i>
   <i type="int" name="LMAXFOCK">     0</i>
   <i type="int" name="NMAXFOCKAE">     0</i>
   <i type="logical" name="LFOCKAEDFT"> F  </i>
   <i name="HFSCREEN">      0.00000000</i>
   <i name="HFSCREENC">      0.00000000</i>
   <i type="int" name="NBANDSGWLOW">     0</i>
  </separator>
  <separator name="vdW DFT" >
   <i type="logical" name="LUSE_VDW"> F  </i>
   <i name="Zab_VDW">     -0.84910000</i>
   <i name="PARAM1">      0.12340000</i>
   <i name="PARAM2">      1.00000000</i>
   <i name="PARAM3">      0.00000000</i>
  </separator>
  <separator name="model GW" >
   <i type="int" name="MODEL_GW">     0</i>
   <i name="MODEL_EPS0">     22.17530709</i>
   <i name="MODEL_ALPHA">      1.00000000</i>
  </separator>
  <separator name="linear response parameters" >
   <i type="logical" name="LEPSILON"> F  </i>
   <i type="logical" name="LRPA"> F  </i>
   <i type="logical" name="LNABLA"> F  </i>
   <i type="logical" name="LVEL"> F  </i>
   <i type="int" name="KINTER">     0</i>
   <i name="CSHIFT">      0.10000000</i>
   <i name="OMEGAMAX">     -1.00000000</i>
   <i name="DEG_THRESHOLD">      0.00200000</i>
   <i name="RTIME">     -0.10000000</i>
   <i name="WPLASMAI">      0.00000000</i>
   <v name="DFIELD">      0.00000000      0.00000000      0.00000000</v>
   <v name="WPLASMA">      0.00000000      0.00000000      0.00000000      0.00000000      0.00000000      0.00000000      0.00000000      0.00000000      0.00000000</v>
  </separator>
  <separator name="orbital magnetization" >
   <i type="logical" name="NUCIND"> F  </i>
   <v name="MAGPOS">      0.00000000      0.00000000      0.00000000</v>
   <i type="logical" name="LNICSALL"> T  </i>
   <i type="logical" name="ORBITALMAG"> F  </i>
   <i type="logical" name="LMAGBLOCH"> F  </i>
   <i type="logical" name="LCHIMAG"> F  </i>
   <i type="logical" name="LGAUGE"> T  </i>
   <i type="int" name="MAGATOM">     0</i>
   <v name="MAGDIPOL">      0.00000000      0.00000000      0.00000000</v>
   <v name="AVECCONST">      0.00000000      0.00000000      0.00000000</v>
  </separator>
  <separator name="response functions" >
   <i type="logical" name="LFINITE_TEMPERATURE"> F  </i>
   <i type="logical" name="LADDER"> F  </i>
   <i type="logical" name="LRPAFORCE"> F  </i>
   <i type="logical" name="LFXC"> F  </i>
   <i type="logical" name="LHARTREE"> T  </i>
   <i type="int" name="IBSE">     0</i>
   <v type="int" name="KPOINT">    -1     0     0     0</v>
   <i type="logical" name="LTCTC"> F  </i>
   <i type="logical" name="LTCTE"> F  </i>
   <i type="logical" name="LTETE"> F  </i>
   <i type="logical" name="LTRIPLET"> F  </i>
   <i type="logical" name="LFXCEPS"> F  </i>
   <i type="logical" name="LFXHEG"> F  </i>
   <i type="int" name="NATURALO">     2</i>
   <i type="logical" name="LHOLEGF"> F  </i>
   <i type="logical" name="L2ORDER"> F  </i>
   <i type="logical" name="LDMP1"> F  </i>
   <i type="logical" name="LMP2LT"> F  </i>
   <i type="logical" name="LSMP2LT"> F  </i>
   <i type="logical" name="LGWLF"> F  </i>
   <i name="ENCUTGW">     -2.00000000</i>
   <i name="ENCUTGWSOFT">     -2.00000000</i>
   <i name="ENCUTLF">     -1.00000000</i>
   <i type="logical" name="LESF_SPLINES"> F  </i>
   <i type="int" name="LMAXMP2">    -1</i>
   <i name="SCISSOR">      0.00000000</i>
   <i type="int" name="NOMEGA">     0</i>
   <i type="int" name="NOMEGAR">     0</i>
   <i type="int" name="NBANDSGW">    -1</i>
   <i type="int" name="NBANDSO">    -1</i>
   <i type="int" name="NBANDSV">    -1</i>
   <i type="int" name="NELM">     1</i>
   <i type="int" name="NELMHF">     1</i>
   <i type="int" name="DIM">     3</i>
   <i type="int" name="IESPILON">     4</i>
   <i type="int" name="ANTIRES">     0</i>
   <i name="OMEGAMAX">    -30.00000000</i>
   <i name="OMEGAMIN">    -30.00000000</i>
   <i name="OMEGATL">   -200.00000000</i>
   <i type="int" name="OMEGAGRID">     0</i>
   <i name="CSHIFT">     -0.10000000</i>
   <i type="logical" name="LSELFENERGY"> F  </i>
   <i type="logical" name="LSPECTRAL"> F  </i>
   <i type="logical" name="LSPECTRALGW"> F  </i>
   <i type="logical" name="LSINGLES"> F  </i>
   <i type="logical" name="LFERMIGW"> F  </i>
   <i type="logical" name="ODDONLYGW"> F  </i>
   <i type="logical" name="EVENONLYGW"> F  </i>
   <i type="int" name="NKREDLFX">     1</i>
   <i type="int" name="NKREDLFY">     1</i>
   <i type="int" name="NKREDLFZ">     1</i>
   <i type="int" name="MAXMEM">  2800</i>
   <i type="int" name="TELESCOPE">     0</i>
   <i type="int" name="NTAUPAR">    -1</i>
   <i type="int" name="NOMEGAPAR">    -1</i>
   <i name="LAMBDA">      1.00000000</i>
  </separator>
  <separator name="External order field" >
   <i name="OFIELD_KAPPA">      0.00000000</i>
   <v name="OFIELD_K">      0.00000000      0.00000000      0.00000000</v>
   <i name="OFIELD_Q6_NEAR">      0.00000000</i>
   <i name="OFIELD_Q6_FAR">      0.00000000</i>
   <i name="OFIELD_A">      0.00000000</i>
  </separator>
 </parameters>
 <atominfo>
  <atoms>      58 </atoms>
  <types>       2 </types>
  <array name="atoms" >
   <dimension dim="1">ion</dimension>
   <field type="string">element</field>
   <field type="int">atomtype</field>
   <set>
    <rc><c>Pt</c><c>   1</c></rc>
    <rc><c>Pt</c><c>   1</c></rc>
    <rc><c>Pt</c><c>   1</c></rc>
    <rc><c>Pt</c><c>   1</c></rc>
    <rc><c>Pt</c><c>   1</c></rc>
    <rc><c>Pt</c><c>   1</c></rc>
    <rc><c>Pt</c><c>   1</c></rc>
    <rc><c>Pt</c><c>   1</c></rc>
    <rc><c>Pt</c><c>   1</c></rc>
    <rc><c>Pt</c><c>   1</c></rc>
    <rc><c>Pt</c><c>   1</c></rc>
    <rc><c>Pt</c><c>   1</c></rc>
    <rc><c>Pt</c><c>   1</c></rc>
    <rc><c>Pt</c><c>   1</c></rc>
    <rc><c>Pt</c><c>   1</c></rc>
    <rc><c>Pt</c><c>   1</c></rc>
    <rc><c>Pt</c><c>   1</c></rc>
    <rc><c>Pt</c><c>   1</c></rc>
    <rc><c>Pt</c><c>   1</c></rc>
    <rc><c>Pt</c><c>   1</c></rc>
    <rc><c>Pt</c><c>   1</c></rc>
    <rc><c>Pt</c><c>   1</c></rc>
    <rc><c>Pt</c><c>   1</c></rc>
    <rc><c>Pt</c><c>   1</c></rc>
    <rc><c>Pt</c><c>   1</c></rc>
    <rc><c>Pt</c><c>   1</c></rc>
    <rc><c>Pt</c><c>   1</c></rc>
    <rc><c>Pt</c><c>   1</c></rc>
    <rc><c>Pt</c><c>   1</c></rc>
    <rc><c>Pt</c><c>   1</c></rc>
    <rc><c>Pt</c><c>   1</c></rc>
    <rc><c>Pt</c><c>   1</c></rc>
    <rc><c>Pt</c><c>   1</c></rc>
    <rc><c>Pt</c><c>   1</c></rc>
    <rc><c>Pt</c><c>   1</c></rc>
    <rc><c>Pt</c><c>   1</c></rc>
    <rc><c>Pt</c><c>   1</c></rc>
    <rc><c>Pt</c><c>   1</c></rc>
    <rc><c>Pt</c><c>   1</c></rc>
    <rc><c>Pt</c><c>   1</c></rc>
    <rc><c>Pt</c><c>   1</c></rc>
    <rc><c>Pt</c><c>   1</c></rc>
    <rc><c>Pt</c><c>   1</c></rc>
    <rc><c>Pt</c><c>   1</c></rc>
    <rc><c>Pt</c><c>   1</c></rc>
    <rc><c>Pt</c><c>   1</c></rc>
    <rc><c>Pt</c><c>   1</c></rc>
    <rc><c>Pt</c><c>   1</c></rc>
    <rc><c>Pt</c><c>   1</c></rc>
    <rc><c>Pt</c><c>   1</c></rc>
    <rc><c>Pt</c><c>   1</c></rc>
    <rc><c>Pt</c><c>   1</c></rc>
    <rc><c>Pt</c><c>   1</c></rc>
    <rc><c>Pt</c><c>   1</c></rc>
    <rc><c>O </c><c>   2</c></rc>
    <rc><c>O </c><c>   2</c></rc>
    <rc><c>O </c><c>   2</c></rc>
    <rc><c>O </c><c>   2</c></rc>
   </set>
  </array>
  <array name="atomtypes" >
   <dimension dim="1">type</dimension>
   <field type="int">atomspertype</field>
   <field type="string">element</field>
   <field>mass</field>
   <field>valence</field>
   <field type="string">pseudopotential</field>
   <set>
    <rc><c>  54</c><c>Pt</c><c>    195.08000000</c><c>     10.00000000</c><c>  PAW_PBE Pt 04Feb2005                  </c></rc>
    <rc><c>   4</c><c>O </c><c>     16.00000000</c><c>      6.00000000</c><c>  PAW_PBE O 08Apr2002                   </c></rc>
   </set>
  </array>
 </atominfo>
 <structure name="initialpos" >
  <crystal>
   <varray name="basis" >
    <v>       8.46376883       0.00000000      -0.00000000 </v>
    <v>      -4.23188442       7.32983882       0.00000000 </v>
    <v>       0.00000000       0.00000000      34.55319157 </v>
   </varray>
   <i name="volume">   2143.61301901 </i>
   <varray name="rec_basis" >
    <v>       0.11815067       0.06821432      -0.00000000 </v>
    <v>      -0.00000000       0.13642865       0.00000000 </v>
    <v>       0.00000000       0.00000000       0.02894089 </v>
   </varray>
  </crystal>
  <varray name="positions" >
   <v>       0.11111111       0.22222222       0.33333333 </v>
   <v>       0.00000000       0.00000000       0.46666667 </v>
   <v>       0.22222222       0.11111111       0.40000000 </v>
   <v>       0.11111111       0.22222222       0.53333333 </v>
   <v>       0.32905648       0.00701019       0.66670245 </v>
   <v>       0.22222222       0.11111111       0.60000000 </v>
   <v>       0.11111111       0.55555556       0.33333333 </v>
   <v>       0.00000000       0.33333333       0.46666667 </v>
   <v>       0.22222222       0.44444444       0.40000000 </v>
   <v>       0.11111111       0.55555556       0.53333333 </v>
   <v>       0.34356964       0.33647565       0.66683704 </v>
   <v>       0.22222222       0.44444444       0.60000000 </v>
   <v>       0.11111111       0.88888889       0.33333333 </v>
   <v>       0.00000000       0.66666667       0.46666667 </v>
   <v>       0.22222222       0.77777778       0.40000000 </v>
   <v>       0.11111111       0.88888889       0.53333333 </v>
   <v>       0.34149332       0.65938739       0.66706570 </v>
   <v>       0.22222222       0.77777778       0.60000000 </v>
   <v>       0.44444444       0.22222222       0.33333333 </v>
   <v>       0.33333333       0.00000000       0.46666667 </v>
   <v>       0.55555556       0.11111111       0.40000000 </v>
   <v>       0.44444444       0.22222222       0.53333333 </v>
   <v>       0.67626932       0.00440516       0.66690211 </v>
   <v>       0.55555556       0.11111111       0.60000000 </v>
   <v>       0.44444444       0.55555556       0.33333333 </v>
   <v>       0.33333333       0.33333333       0.46666667 </v>
   <v>       0.55555556       0.44444444       0.40000000 </v>
   <v>       0.44444444       0.55555556       0.53333333 </v>
   <v>       0.65851675       0.32170799       0.66669630 </v>
   <v>       0.55555556       0.44444444       0.60000000 </v>
   <v>       0.44444444       0.88888889       0.33333333 </v>
   <v>       0.33333333       0.66666667       0.46666667 </v>
   <v>       0.55555556       0.77777778       0.40000000 </v>
   <v>       0.44444444       0.88888889       0.53333333 </v>
   <v>       0.66130724       0.67166771       0.66674252 </v>
   <v>       0.55555556       0.77777778       0.60000000 </v>
   <v>       0.77777778       0.22222222       0.33333333 </v>
   <v>       0.66666667       0.00000000       0.46666667 </v>
   <v>       0.88888889       0.11111111       0.40000000 </v>
   <v>       0.77777778       0.22222222       0.53333333 </v>
   <v>       0.99374413       0.98945091       0.66684632 </v>
   <v>       0.88888889       0.11111111       0.60000000 </v>
   <v>       0.77777778       0.55555556       0.33333333 </v>
   <v>       0.66666667       0.33333333       0.46666667 </v>
   <v>       0.88888889       0.44444444       0.40000000 </v>
   <v>       0.77777778       0.55555556       0.53333333 </v>
   <v>       0.98349364       0.32409947       0.66712136 </v>
   <v>       0.88888889       0.44444444       0.60000000 </v>
   <v>       0.77777778       0.88888889       0.33333333 </v>
   <v>       0.66666667       0.66666667       0.46666667 </v>
   <v>       0.88888889       0.77777778       0.40000000 </v>
   <v>       0.77777778       0.88888889       0.53333333 </v>
   <v>       0.00610291       0.68197252       0.66725719 </v>
   <v>       0.88888889       0.77777778       0.60000000 </v>
   <v>       0.44877946       0.89577206       0.70060686 </v>
   <v>       0.11064594       0.55491508       0.69971237 </v>
   <v>       0.76910804       0.55246132       0.70063367 </v>
   <v>       0.11249974       0.21646608       0.70069995 </v>
  </varray>
  <varray name="selective"  type="logical" >
   <v type="logical" >  F  F  F </v>
   <v type="logical" >  F  F  F </v>
   <v type="logical" >  F  F  F </v>
   <v type="logical" >  F  F  F </v>
   <v type="logical" >  T  T  T </v>
   <v type="logical" >  F  F  F </v>
   <v type="logical" >  F  F  F </v>
   <v type="logical" >  F  F  F </v>
   <v type="logical" >  F  F  F </v>
   <v type="logical" >  F  F  F </v>
   <v type="logical" >  T  T  T </v>
   <v type="logical" >  F  F  F </v>
   <v type="logical" >  F  F  F </v>
   <v type="logical" >  F  F  F </v>
   <v type="logical" >  F  F  F </v>
   <v type="logical" >  F  F  F </v>
   <v type="logical" >  T  T  T </v>
   <v type="logical" >  F  F  F </v>
   <v type="logical" >  F  F  F </v>
   <v type="logical" >  F  F  F </v>
   <v type="logical" >  F  F  F </v>
   <v type="logical" >  F  F  F </v>
   <v type="logical" >  T  T  T </v>
   <v type="logical" >  F  F  F </v>
   <v type="logical" >  F  F  F </v>
   <v type="logical" >  F  F  F </v>
   <v type="logical" >  F  F  F </v>
   <v type="logical" >  F  F  F </v>
   <v type="logical" >  T  T  T </v>
   <v type="logical" >  F  F  F </v>
   <v type="logical" >  F  F  F </v>
   <v type="logical" >  F  F  F </v>
   <v type="logical" >  F  F  F </v>
   <v type="logical" >  F  F  F </v>
   <v type="logical" >  T  T  T </v>
   <v type="logical" >  F  F  F </v>
   <v type="logical" >  F  F  F </v>
   <v type="logical" >  F  F  F </v>
   <v type="logical" >  F  F  F </v>
   <v type="logical" >  F  F  F </v>
   <v type="logical" >  T  T  T </v>
   <v type="logical" >  F  F  F </v>
   <v type="logical" >  F  F  F </v>
   <v type="logical" >  F  F  F </v>
   <v type="logical" >  F  F  F </v>
   <v type="logical" >  F  F  F </v>
   <v type="logical" >  T  T  T </v>
   <v type="logical" >  F  F  F </v>
   <v type="logical" >  F  F  F </v>
   <v type="logical" >  F  F  F </v>
   <v type="logical" >  F  F  F </v>
   <v type="logical" >  F  F  F </v>
   <v type="logical" >  T  T  T </v>
   <v type="logical" >  F  F  F </v>
   <v type="logical" >  T  T  T </v>
   <v type="logical" >  T  T  T </v>
   <v type="logical" >  T  T  T </v>
   <v type="logical" >  T  T  T </v>
  </varray>
  <nose>
   <v>      -3.00000000       0.00000000       0.00010000       0.00010000 </v>
  </nose>
 </structure>
 <calculation>
  <scstep>
   <time name="dav">   54.97   55.03</time>
   <time name="total">   55.18   55.25</time>
   <energy>
    <i name="alphaZ">   1374.94101271 </i>
    <i name="ewald"> 417937.80809463 </i>
    <i name="hartreedc">-461437.24281250 </i>
    <i name="XCdc">    279.69046046 </i>
    <i name="pawpsdc">  39009.72186799 </i>
    <i name="pawaedc"> -37436.46586481 </i>
    <i name="eentropy">      0.00013035 </i>
    <i name="bandstr">   2618.56854514 </i>
    <i name="atom">  41056.50343353 </i>
    <i name="e_fr_energy">   3403.52486751 </i>
    <i name="e_wo_entrp">   3403.52473715 </i>
    <i name="e_0_energy">   3403.52482406 </i>
   </energy>
  </scstep>
  <scstep>
   <time name="dav">   62.32   62.39</time>
   <time name="total">   62.32   62.39</time>
   <energy>
    <i name="e_fr_energy">    -55.98524832 </i>
    <i name="e_wo_entrp">    -55.99012134 </i>
    <i name="e_0_energy">    -55.98687266 </i>
   </energy>
  </scstep>
  <scstep>
   <time name="dav">   61.52   61.59</time>
   <time name="total">   61.52   61.60</time>
   <energy>
    <i name="e_fr_energy">   -318.76946969 </i>
    <i name="e_wo_entrp">   -318.69463684 </i>
    <i name="e_0_energy">   -318.74452541 </i>
   </energy>
  </scstep>
  <scstep>
   <time name="dav">   66.15   66.22</time>
   <time name="total">   66.16   66.23</time>
   <energy>
    <i name="e_fr_energy">   -331.11977229 </i>
    <i name="e_wo_entrp">   -331.03465966 </i>
    <i name="e_0_energy">   -331.09140141 </i>
   </energy>
  </scstep>
  <scstep>
   <time name="dav">   64.79   64.86</time>
   <time name="total">   68.16   68.23</time>
   <energy>
    <i name="e_fr_energy">   -331.44859578 </i>
    <i name="e_wo_entrp">   -331.36345758 </i>
    <i name="e_0_energy">   -331.42021638 </i>
   </energy>
  </scstep>
  <scstep>
   <time name="dav">   61.56   61.63</time>
   <time name="total">   65.02   65.09</time>
   <energy>
    <i name="e_fr_energy">   -390.75808584 </i>
    <i name="e_wo_entrp">   -390.75272274 </i>
    <i name="e_0_energy">   -390.75629814 </i>
   </energy>
  </scstep>
  <scstep>
   <time name="dav">   67.46   67.53</time>
   <time name="total">   70.87   70.94</time>
   <energy>
    <i name="e_fr_energy">   -363.31978958 </i>
    <i name="e_wo_entrp">   -363.29220444 </i>
    <i name="e_0_energy">   -363.31059454 </i>
   </energy>
  </scstep>
  <scstep>
   <time name="dav">   74.30   74.38</time>
   <time name="total">   77.88   77.97</time>
   <energy>
    <i name="e_fr_energy">   -629.11412139 </i>
    <i name="e_wo_entrp">   -629.14393487 </i>
    <i name="e_0_energy">   -629.12405922 </i>
   </energy>
  </scstep>
  <scstep>
   <time name="dav">   65.66   65.73</time>
   <time name="total">   69.02   69.10</time>
   <energy>
    <i name="e_fr_energy">   -445.95498793 </i>
    <i name="e_wo_entrp">   -445.95421038 </i>
    <i name="e_0_energy">   -445.95472875 </i>
   </energy>
  </scstep>
  <scstep>
   <time name="dav">   59.06   59.12</time>
   <time name="total">   62.51   62.58</time>
   <energy>
    <i name="e_fr_energy">   -439.17244051 </i>
    <i name="e_wo_entrp">   -439.17495998 </i>
    <i name="e_0_energy">   -439.17328033 </i>
   </energy>
  </scstep>
  <scstep>
   <time name="dav">   61.44   61.51</time>
   <time name="total">   64.99   65.06</time>
   <energy>
    <i name="e_fr_energy">   -338.34109619 </i>
    <i name="e_wo_entrp">   -338.26983442 </i>
    <i name="e_0_energy">   -338.31734227 </i>
   </energy>
  </scstep>
  <scstep>
   <time name="dav">   59.60   59.66</time>
   <time name="total">   63.06   63.12</time>
   <energy>
    <i name="e_fr_energy">   -321.51874831 </i>
    <i name="e_wo_entrp">   -321.42565776 </i>
    <i name="e_0_energy">   -321.48771813 </i>
   </energy>
  </scstep>
  <scstep>
   <time name="dav">   58.51   58.57</time>
   <time name="total">   61.94   62.01</time>
   <energy>
    <i name="e_fr_energy">   -310.04603281 </i>
    <i name="e_wo_entrp">   -310.03897362 </i>
    <i name="e_0_energy">   -310.04367975 </i>
   </energy>
  </scstep>
  <scstep>
   <time name="dav">   60.52   60.58</time>
   <time name="total">   64.04   64.11</time>
   <energy>
    <i name="e_fr_energy">   -308.37003708 </i>
    <i name="e_wo_entrp">   -308.24925498 </i>
    <i name="e_0_energy">   -308.32977638 </i>
   </energy>
  </scstep>
  <scstep>
   <time name="dav">   59.55   59.62</time>
   <time name="total">   63.07   63.14</time>
   <energy>
    <i name="e_fr_energy">   -307.47803718 </i>
    <i name="e_wo_entrp">   -307.35809115 </i>
    <i name="e_0_energy">   -307.43805517 </i>
   </energy>
  </scstep>
  <scstep>
   <time name="dav">   57.69   57.75</time>
   <time name="total">   61.19   61.25</time>
   <energy>
    <i name="e_fr_energy">   -307.65769585 </i>
    <i name="e_wo_entrp">   -307.56410072 </i>
    <i name="e_0_energy">   -307.62649748 </i>
   </energy>
  </scstep>
  <scstep>
   <time name="dav">   57.73   57.80</time>
   <time name="total">   61.17   61.24</time>
   <energy>
    <i name="e_fr_energy">   -307.20823187 </i>
    <i name="e_wo_entrp">   -307.09384096 </i>
    <i name="e_0_energy">   -307.17010156 </i>
   </energy>
  </scstep>
  <scstep>
   <time name="dav">   58.69   58.76</time>
   <time name="total">   62.30   62.36</time>
   <energy>
    <i name="e_fr_energy">   -308.04737560 </i>
    <i name="e_wo_entrp">   -307.92241093 </i>
    <i name="e_0_energy">   -308.00572071 </i>
   </energy>
  </scstep>
  <scstep>
   <time name="dav">   56.65   56.71</time>
   <time name="total">   60.11   60.17</time>
   <energy>
    <i name="e_fr_energy">   -307.54218347 </i>
    <i name="e_wo_entrp">   -307.42258336 </i>
    <i name="e_0_energy">   -307.50231677 </i>
   </energy>
  </scstep>
  <scstep>
   <time name="dav">   59.08   59.14</time>
   <time name="total">   62.62   62.69</time>
   <energy>
    <i name="e_fr_energy">   -307.02355696 </i>
    <i name="e_wo_entrp">   -306.91181156 </i>
    <i name="e_0_energy">   -306.98630849 </i>
   </energy>
  </scstep>
  <scstep>
   <time name="dav">   58.63   58.69</time>
   <time name="total">   62.20   62.26</time>
   <energy>
    <i name="e_fr_energy">   -306.96495860 </i>
    <i name="e_wo_entrp">   -306.85284151 </i>
    <i name="e_0_energy">   -306.92758623 </i>
   </energy>
  </scstep>
  <scstep>
   <time name="dav">   57.91   57.97</time>
   <time name="total">   61.45   61.51</time>
   <energy>
    <i name="e_fr_energy">   -307.01428996 </i>
    <i name="e_wo_entrp">   -306.89885290 </i>
    <i name="e_0_energy">   -306.97581094 </i>
   </energy>
  </scstep>
  <scstep>
   <time name="dav">   56.91   56.98</time>
   <time name="total">   60.35   60.42</time>
   <energy>
    <i name="e_fr_energy">   -307.00176339 </i>
    <i name="e_wo_entrp">   -306.88674706 </i>
    <i name="e_0_energy">   -306.96342462 </i>
   </energy>
  </scstep>
  <scstep>
   <time name="dav">   59.75   59.82</time>
   <time name="total">   63.27   63.33</time>
   <energy>
    <i name="e_fr_energy">   -306.98448399 </i>
    <i name="e_wo_entrp">   -306.86933898 </i>
    <i name="e_0_energy">   -306.94610232 </i>
   </energy>
  </scstep>
  <scstep>
   <time name="dav">   58.55   58.61</time>
   <time name="total">   61.99   62.06</time>
   <energy>
    <i name="e_fr_energy">   -306.93212117 </i>
    <i name="e_wo_entrp">   -306.82208738 </i>
    <i name="e_0_energy">   -306.89544324 </i>
   </energy>
  </scstep>
  <scstep>
   <time name="dav">   59.66   59.72</time>
   <time name="total">   63.18   63.24</time>
   <energy>
    <i name="e_fr_energy">   -306.89285557 </i>
    <i name="e_wo_entrp">   -306.78725115 </i>
    <i name="e_0_energy">   -306.85765409 </i>
   </energy>
  </scstep>
  <scstep>
   <time name="dav">   58.79   58.85</time>
   <time name="total">   62.31   62.37</time>
   <energy>
    <i name="e_fr_energy">   -306.88611440 </i>
    <i name="e_wo_entrp">   -306.78174565 </i>
    <i name="e_0_energy">   -306.85132482 </i>
   </energy>
  </scstep>
  <scstep>
   <time name="dav">   57.84   57.90</time>
   <time name="total">   61.38   61.44</time>
   <energy>
    <i name="e_fr_energy">   -306.88223074 </i>
    <i name="e_wo_entrp">   -306.77817829 </i>
    <i name="e_0_energy">   -306.84754659 </i>
   </energy>
  </scstep>
  <scstep>
   <time name="dav">   58.90   58.96</time>
   <time name="total">   62.44   62.50</time>
   <energy>
    <i name="e_fr_energy">   -306.87761060 </i>
    <i name="e_wo_entrp">   -306.77281088 </i>
    <i name="e_0_energy">   -306.84267736 </i>
   </energy>
  </scstep>
  <scstep>
   <time name="dav">   58.30   58.36</time>
   <time name="total">   61.76   61.83</time>
   <energy>
    <i name="e_fr_energy">   -306.87261943 </i>
    <i name="e_wo_entrp">   -306.76835255 </i>
    <i name="e_0_energy">   -306.83786380 </i>
   </energy>
  </scstep>
  <scstep>
   <time name="dav">   58.49   58.55</time>
   <time name="total">   61.96   62.03</time>
   <energy>
    <i name="e_fr_energy">   -306.86983623 </i>
    <i name="e_wo_entrp">   -306.76637628 </i>
    <i name="e_0_energy">   -306.83534958 </i>
   </energy>
  </scstep>
  <scstep>
   <time name="dav">   57.62   57.68</time>
   <time name="total">   61.11   61.17</time>
   <energy>
    <i name="e_fr_energy">   -306.86859982 </i>
    <i name="e_wo_entrp">   -306.76554822 </i>
    <i name="e_0_energy">   -306.83424929 </i>
   </energy>
  </scstep>
  <scstep>
   <time name="dav">   39.84   39.88</time>
   <time name="total">   43.41   43.45</time>
   <energy>
    <i name="e_fr_energy">   -306.86847681 </i>
    <i name="e_wo_entrp">   -306.76555111 </i>
    <i name="e_0_energy">   -306.83416824 </i>
   </energy>
  </scstep>
  <scstep>
   <time name="dav">   36.69   36.73</time>
   <time name="total">   36.90   36.94</time>
   <energy>
    <i name="alphaZ">   1374.94101271 </i>
    <i name="ewald"> 417937.80809463 </i>
    <i name="hartreedc">-460833.26726974 </i>
    <i name="XCdc">    265.13887858 </i>
    <i name="pawpsdc">  50329.99937089 </i>
    <i name="pawaedc"> -48904.78179663 </i>
    <i name="eentropy">     -0.10294493 </i>
    <i name="bandstr">  -1533.10722089 </i>
    <i name="atom">  41056.50343353 </i>
    <i name="e_fr_energy">   -306.86844185 </i>
    <i name="e_wo_entrp">   -306.76549693 </i>
    <i name="e_0_energy">   -306.83412688 </i>
   </energy>
  </scstep>
  <structure>
   <crystal>
    <varray name="basis" >
     <v>       8.46376883       0.00000000      -0.00000000 </v>
     <v>      -4.23188442       7.32983882       0.00000000 </v>
     <v>       0.00000000       0.00000000      34.55319157 </v>
    </varray>
    <i name="volume">   2143.61301901 </i>
    <varray name="rec_basis" >
     <v>       0.11815067       0.06821432      -0.00000000 </v>
     <v>      -0.00000000       0.13642865       0.00000000 </v>
     <v>       0.00000000       0.00000000       0.02894089 </v>
    </varray>
   </crystal>
   <varray name="positions" >
    <v>       0.11111111       0.22222222       0.33333333 </v>
    <v>       0.00000000       0.00000000       0.46666667 </v>
    <v>       0.22222222       0.11111111       0.40000000 </v>
    <v>       0.11111111       0.22222222       0.53333333 </v>
    <v>       0.32905648       0.00701019       0.66670245 </v>
    <v>       0.22222222       0.11111111       0.60000000 </v>
    <v>       0.11111111       0.55555556       0.33333333 </v>
    <v>       0.00000000       0.33333333       0.46666667 </v>
    <v>       0.22222222       0.44444444       0.40000000 </v>
    <v>       0.11111111       0.55555556       0.53333333 </v>
    <v>       0.34356964       0.33647565       0.66683704 </v>
    <v>       0.22222222       0.44444444       0.60000000 </v>
    <v>       0.11111111       0.88888889       0.33333333 </v>
    <v>       0.00000000       0.66666667       0.46666667 </v>
    <v>       0.22222222       0.77777778       0.40000000 </v>
    <v>       0.11111111       0.88888889       0.53333333 </v>
    <v>       0.34149332       0.65938739       0.66706570 </v>
    <v>       0.22222222       0.77777778       0.60000000 </v>
    <v>       0.44444444       0.22222222       0.33333333 </v>
    <v>       0.33333333       0.00000000       0.46666667 </v>
    <v>       0.55555556       0.11111111       0.40000000 </v>
    <v>       0.44444444       0.22222222       0.53333333 </v>
    <v>       0.67626932       0.00440516       0.66690211 </v>
    <v>       0.55555556       0.11111111       0.60000000 </v>
    <v>       0.44444444       0.55555556       0.33333333 </v>
    <v>       0.33333333       0.33333333       0.46666667 </v>
    <v>       0.55555556       0.44444444       0.40000000 </v>
    <v>       0.44444444       0.55555556       0.53333333 </v>
    <v>       0.65851675       0.32170799       0.66669630 </v>
    <v>       0.55555556       0.44444444       0.60000000 </v>
    <v>       0.44444444       0.88888889       0.33333333 </v>
    <v>       0.33333333       0.66666667       0.46666667 </v>
    <v>       0.55555556       0.77777778       0.40000000 </v>
    <v>       0.44444444       0.88888889       0.53333333 </v>
    <v>       0.66130724       0.67166771       0.66674252 </v>
    <v>       0.55555556       0.77777778       0.60000000 </v>
    <v>       0.77777778       0.22222222       0.33333333 </v>
    <v>       0.66666667       0.00000000       0.46666667 </v>
    <v>       0.88888889       0.11111111       0.40000000 </v>
    <v>       0.77777778       0.22222222       0.53333333 </v>
    <v>       0.99374413       0.98945091       0.66684632 </v>
    <v>       0.88888889       0.11111111       0.60000000 </v>
    <v>       0.77777778       0.55555556       0.33333333 </v>
    <v>       0.66666667       0.33333333       0.46666667 </v>
    <v>       0.88888889       0.44444444       0.40000000 </v>
    <v>       0.77777778       0.55555556       0.53333333 </v>
    <v>       0.98349364       0.32409947       0.66712136 </v>
    <v>       0.88888889       0.44444444       0.60000000 </v>
    <v>       0.77777778       0.88888889       0.33333333 </v>
    <v>       0.66666667       0.66666667       0.46666667 </v>
    <v>       0.88888889       0.77777778       0.40000000 </v>
    <v>       0.77777778       0.88888889       0.53333333 </v>
    <v>       0.00610291       0.68197252       0.66725719 </v>
    <v>       0.88888889       0.77777778       0.60000000 </v>
    <v>       0.44877946       0.89577206       0.70060686 </v>
    <v>       0.11064594       0.55491508       0.69971237 </v>
    <v>       0.76910804       0.55246132       0.70063367 </v>
    <v>       0.11249974       0.21646608       0.70069995 </v>
   </varray>
  </structure>
  <varray name="forces" >
   <v>       0.00460321       0.00307069      -0.11329489 </v>
   <v>       0.02439316      -0.01016000      -0.04524622 </v>
   <v>      -0.00568364      -0.02417477       0.17865821 </v>
   <v>      -0.00346247      -0.02784756      -0.04738924 </v>
   <v>       0.00298388      -0.08088403       0.11537615 </v>
   <v>       0.13579052      -0.01442247      -0.09602057 </v>
   <v>      -0.00078567      -0.00078573      -0.16487016 </v>
   <v>      -0.05361890       0.00763099      -0.03546387 </v>
   <v>      -0.00875280       0.03067575       0.20667806 </v>
   <v>      -0.00057453       0.00017397      -0.07339478 </v>
   <v>      -0.05903683       0.03834293       0.09451297 </v>
   <v>      -0.00697293       0.07086886      -0.02385156 </v>
   <v>       0.00289853      -0.00540294      -0.17343606 </v>
   <v>       0.03341794       0.04283306      -0.03441376 </v>
   <v>      -0.01532571      -0.02294411       0.20667131 </v>
   <v>      -0.04202896      -0.00040413      -0.10916483 </v>
   <v>       0.08444759      -0.04378527       0.12481606 </v>
   <v>      -0.06992592      -0.04963557      -0.02738327 </v>
   <v>      -0.00261982      -0.00225283      -0.13048587 </v>
   <v>      -0.03485148       0.02224268      -0.04936171 </v>
   <v>       0.02617041       0.00470175       0.17899067 </v>
   <v>      -0.00226791      -0.00116083      -0.11678271 </v>
   <v>       0.06217812       0.00638470      -0.00606790 </v>
   <v>      -0.05871326       0.12079790      -0.10472127 </v>
   <v>      -0.00452466       0.00041525      -0.17670943 </v>
   <v>       0.03516069       0.01668995      -0.04789399 </v>
   <v>      -0.01820799       0.01988004       0.17883388 </v>
   <v>       0.02305921       0.03747382      -0.11226336 </v>
   <v>       0.05381038       0.05743491       0.12053392 </v>
   <v>      -0.09448958      -0.12586092      -0.10352537 </v>
   <v>      -0.00456838       0.00366619      -0.11723208 </v>
   <v>       0.01984508      -0.05096294      -0.03289085 </v>
   <v>      -0.00001149      -0.01724128       0.22452587 </v>
   <v>       0.02804142       0.01269590      -0.05170764 </v>
   <v>      -0.03987558       0.04066600       0.01787566 </v>
   <v>       0.00091409      -0.15700102       0.17364358 </v>
   <v>       0.00591267       0.00194678      -0.17411867 </v>
   <v>      -0.00285940       0.02545288      -0.05114628 </v>
   <v>      -0.01791324       0.00567486       0.22508595 </v>
   <v>       0.02541248      -0.03989494      -0.11198605 </v>
   <v>       0.00340400      -0.05931333       0.00389163 </v>
   <v>      -0.15371359       0.06429330       0.17598959 </v>
   <v>      -0.00004068      -0.00224648      -0.11737828 </v>
   <v>      -0.00188623      -0.04086061      -0.04557874 </v>
   <v>       0.02782208      -0.00639975       0.20661518 </v>
   <v>      -0.02205085       0.02121299      -0.05006427 </v>
   <v>      -0.05744716      -0.05042183       0.12444182 </v>
   <v>       0.06339060      -0.03226461      -0.02394876 </v>
   <v>      -0.00105453      -0.00082199      -0.16286720 </v>
   <v>      -0.01984751      -0.01532819      -0.05259941 </v>
   <v>       0.01102270       0.00733007       0.22446043 </v>
   <v>      -0.00078803      -0.00038481      -0.09253299 </v>
   <v>       0.00542403       0.10147266       0.11119853 </v>
   <v>       0.12886879       0.08211734       0.17845330 </v>
   <v>      -0.02743298       0.15427900      -0.09484974 </v>
   <v>      -0.01548695       0.02354530       0.11522227 </v>
   <v>      -0.11100181      -0.09229684      -0.10002992 </v>
   <v>       0.14884987      -0.04881077      -0.11580334 </v>
  </varray>
  <energy>
   <i name="e_fr_energy">   -306.86844185 </i>
   <i name="e_wo_entrp">   -306.76549693 </i>
   <i name="e_0_energy">   -306.83412688 </i>
  </energy>
  <time name="totalsc"> 2124.00 2126.34</time>
  <eigenvalues>
   <array>
    <dimension dim="1">band</dimension>
    <dimension dim="2">kpoint</dimension>
    <dimension dim="3">spin</dimension>
    <field>eigene</field>
    <field>occ</field>
    <set>
     <set comment="spin 1">
      <set comment="kpoint 1">
       <r>  -18.9050    1.0000 </r>
       <r>  -18.5983    1.0000 </r>
       <r>  -18.5948    1.0000 </r>
       <r>  -18.5525    1.0000 </r>
       <r>   -8.5760    1.0000 </r>
       <r>   -7.8898    1.0000 </r>
       <r>   -7.0182    1.0000 </r>
       <r>   -6.6897    1.0000 </r>
       <r>   -6.6854    1.0000 </r>
       <r>   -6.4531    1.0000 </r>
       <r>   -6.2960    1.0000 </r>
       <r>   -6.1953    1.0000 </r>
       <r>   -6.0831    1.0000 </r>
       <r>   -6.0583    1.0000 </r>
       <r>   -6.0580    1.0000 </r>
       <r>   -5.9813    1.0000 </r>
       <r>   -5.9809    1.0000 </r>
       <r>   -5.9425    1.0000 </r>
       <r>   -5.9175    1.0000 </r>
       <r>   -5.8120    1.0000 </r>
       <r>   -5.8018    1.0000 </r>
       <r>   -5.7999    1.0000 </r>
       <r>   -5.5985    1.0000 </r>
       <r>   -5.5965    1.0000 </r>
       <r>   -5.5454    1.0000 </r>
       <r>   -5.5377    1.0000 </r>
       <r>   -5.5361    1.0000 </r>
       <r>   -5.5278    1.0000 </r>
       <r>   -5.4929    1.0000 </r>
       <r>   -5.4929    1.0000 </r>
       <r>   -5.3154    1.0000 </r>
       <r>   -5.2842    1.0000 </r>
       <r>   -5.2838    1.0000 </r>
       <r>   -5.2755    1.0000 </r>
       <r>   -5.2744    1.0000 </r>
       <r>   -5.2716    1.0000 </r>
       <r>   -5.0281    1.0000 </r>
       <r>   -4.9860    1.0000 </r>
       <r>   -4.9807    1.0000 </r>
       <r>   -4.9295    1.0000 </r>
       <r>   -4.9294    1.0000 </r>
       <r>   -4.9272    1.0000 </r>
       <r>   -4.8334    1.0000 </r>
       <r>   -4.8295    1.0000 </r>
       <r>   -4.8042    1.0000 </r>
       <r>   -4.7586    1.0000 </r>
       <r>   -4.7580    1.0000 </r>
       <r>   -4.7388    1.0000 </r>
       <r>   -4.7062    1.0000 </r>
       <r>   -4.7061    1.0000 </r>
       <r>   -4.6597    1.0000 </r>
       <r>   -4.4877    1.0000 </r>
       <r>   -4.4783    1.0000 </r>
       <r>   -4.4779    1.0000 </r>
       <r>   -4.4662    1.0000 </r>
       <r>   -4.4601    1.0000 </r>
       <r>   -4.4599    1.0000 </r>
       <r>   -4.4586    1.0000 </r>
       <r>   -4.4477    1.0000 </r>
       <r>   -4.4438    1.0000 </r>
       <r>   -4.4436    1.0000 </r>
       <r>   -4.4132    1.0000 </r>
       <r>   -4.4128    1.0000 </r>
       <r>   -4.3933    1.0000 </r>
       <r>   -4.3926    1.0000 </r>
       <r>   -4.3679    1.0000 </r>
       <r>   -4.3422    1.0000 </r>
       <r>   -4.2576    1.0000 </r>
       <r>   -4.2572    1.0000 </r>
       <r>   -4.2350    1.0000 </r>
       <r>   -4.1511    1.0000 </r>
       <r>   -4.1251    1.0000 </r>
       <r>   -4.1246    1.0000 </r>
       <r>   -4.0794    1.0000 </r>
       <r>   -4.0791    1.0000 </r>
       <r>   -4.0723    1.0000 </r>
       <r>   -3.9844    1.0000 </r>
       <r>   -3.9839    1.0000 </r>
       <r>   -3.9712    1.0000 </r>
       <r>   -3.8499    1.0000 </r>
       <r>   -3.7694    1.0000 </r>
       <r>   -3.7692    1.0000 </r>
       <r>   -3.7232    1.0000 </r>
       <r>   -3.7231    1.0000 </r>
       <r>   -3.7092    1.0000 </r>
       <r>   -3.7037    1.0000 </r>
       <r>   -3.6939    1.0000 </r>
       <r>   -3.6935    1.0000 </r>
       <r>   -3.6335    1.0000 </r>
       <r>   -3.6335    1.0000 </r>
       <r>   -3.5991    1.0000 </r>
       <r>   -3.4648    1.0000 </r>
       <r>   -3.4598    1.0000 </r>
       <r>   -3.3800    1.0000 </r>
       <r>   -3.3629    1.0000 </r>
       <r>   -3.3611    1.0000 </r>
       <r>   -3.3092    1.0000 </r>
       <r>   -3.3073    1.0000 </r>
       <r>   -3.2083    1.0000 </r>
       <r>   -3.2079    1.0000 </r>
       <r>   -3.1701    1.0000 </r>
       <r>   -3.1522    1.0000 </r>
       <r>   -2.9920    1.0000 </r>
       <r>   -2.9910    1.0000 </r>
       <r>   -2.9566    1.0000 </r>
       <r>   -2.9251    1.0000 </r>
       <r>   -2.9246    1.0000 </r>
       <r>   -2.8798    1.0000 </r>
       <r>   -2.8794    1.0000 </r>
       <r>   -2.8731    1.0000 </r>
       <r>   -2.8658    1.0000 </r>
       <r>   -2.8437    1.0000 </r>
       <r>   -2.7754    1.0000 </r>
       <r>   -2.7754    1.0000 </r>
       <r>   -2.7629    1.0000 </r>
       <r>   -2.7627    1.0000 </r>
       <r>   -2.7616    1.0000 </r>
       <r>   -2.7448    1.0000 </r>
       <r>   -2.6833    1.0000 </r>
       <r>   -2.6831    1.0000 </r>
       <r>   -2.6690    1.0000 </r>
       <r>   -2.6514    1.0000 </r>
       <r>   -2.6504    1.0000 </r>
       <r>   -2.6320    1.0000 </r>
       <r>   -2.6237    1.0000 </r>
       <r>   -2.5858    1.0000 </r>
       <r>   -2.5854    1.0000 </r>
       <r>   -2.5777    1.0000 </r>
       <r>   -2.5775    1.0000 </r>
       <r>   -2.5295    1.0000 </r>
       <r>   -2.5290    1.0000 </r>
       <r>   -2.4998    1.0000 </r>
       <r>   -2.4997    1.0000 </r>
       <r>   -2.4991    1.0000 </r>
       <r>   -2.4827    1.0000 </r>
       <r>   -2.4786    1.0000 </r>
       <r>   -2.4782    1.0000 </r>
       <r>   -2.4354    1.0000 </r>
       <r>   -2.4338    1.0000 </r>
       <r>   -2.3911    1.0000 </r>
       <r>   -2.3908    1.0000 </r>
       <r>   -2.3880    1.0000 </r>
       <r>   -2.3854    1.0000 </r>
       <r>   -2.3842    1.0000 </r>
       <r>   -2.3769    1.0000 </r>
       <r>   -2.3576    1.0000 </r>
       <r>   -2.3569    1.0000 </r>
       <r>   -2.3489    1.0000 </r>
       <r>   -2.3419    1.0000 </r>
       <r>   -2.3400    1.0000 </r>
       <r>   -2.3213    1.0000 </r>
       <r>   -2.3209    1.0000 </r>
       <r>   -2.3191    1.0000 </r>
       <r>   -2.2412    1.0000 </r>
       <r>   -2.2369    1.0000 </r>
       <r>   -2.2152    1.0000 </r>
       <r>   -2.1377    1.0000 </r>
       <r>   -2.1103    1.0000 </r>
       <r>   -2.1097    1.0000 </r>
       <r>   -2.0846    1.0000 </r>
       <r>   -2.0486    1.0000 </r>
       <r>   -2.0486    1.0000 </r>
       <r>   -2.0164    1.0000 </r>
       <r>   -2.0052    1.0000 </r>
       <r>   -2.0046    1.0000 </r>
       <r>   -1.9511    1.0000 </r>
       <r>   -1.9510    1.0000 </r>
       <r>   -1.9068    1.0000 </r>
       <r>   -1.9040    1.0000 </r>
       <r>   -1.8867    1.0000 </r>
       <r>   -1.8867    1.0000 </r>
       <r>   -1.8704    1.0000 </r>
       <r>   -1.8142    1.0000 </r>
       <r>   -1.8129    1.0000 </r>
       <r>   -1.7578    1.0000 </r>
       <r>   -1.5568    1.0000 </r>
       <r>   -1.5558    1.0000 </r>
       <r>   -1.5490    1.0000 </r>
       <r>   -1.4074    1.0000 </r>
       <r>   -1.3997    1.0000 </r>
       <r>   -1.3989    1.0000 </r>
       <r>   -1.3676    1.0000 </r>
       <r>   -1.3669    1.0000 </r>
       <r>   -1.3584    1.0000 </r>
       <r>   -1.2803    1.0000 </r>
       <r>   -1.2785    1.0000 </r>
       <r>   -1.2449    1.0000 </r>
       <r>   -1.1729    1.0000 </r>
       <r>   -1.1718    1.0000 </r>
       <r>   -1.1582    1.0000 </r>
       <r>   -1.1043    1.0000 </r>
       <r>   -1.1032    1.0000 </r>
       <r>   -1.0724    1.0000 </r>
       <r>   -1.0721    1.0000 </r>
       <r>   -1.0719    1.0000 </r>
       <r>   -1.0614    1.0000 </r>
       <r>   -1.0494    1.0000 </r>
       <r>   -1.0431    1.0000 </r>
       <r>   -1.0430    1.0000 </r>
       <r>   -1.0332    1.0000 </r>
       <r>   -1.0293    1.0000 </r>
       <r>   -1.0291    1.0000 </r>
       <r>   -1.0035    1.0000 </r>
       <r>   -0.9773    1.0000 </r>
       <r>   -0.9643    1.0000 </r>
       <r>   -0.9630    1.0000 </r>
       <r>   -0.8930    1.0000 </r>
       <r>   -0.7781    1.0000 </r>
       <r>   -0.7771    1.0000 </r>
       <r>   -0.7714    1.0000 </r>
       <r>   -0.7668    1.0000 </r>
       <r>   -0.7053    1.0000 </r>
       <r>   -0.7043    1.0000 </r>
       <r>   -0.6767    1.0000 </r>
       <r>   -0.6767    1.0000 </r>
       <r>   -0.6558    1.0000 </r>
       <r>   -0.6197    1.0000 </r>
       <r>   -0.6193    1.0000 </r>
       <r>   -0.5843    1.0000 </r>
       <r>   -0.5360    1.0000 </r>
       <r>   -0.5344    1.0000 </r>
       <r>   -0.4424    1.0000 </r>
       <r>   -0.4399    1.0000 </r>
       <r>   -0.4371    1.0000 </r>
       <r>   -0.3680    1.0000 </r>
       <r>   -0.3674    1.0000 </r>
       <r>   -0.3347    1.0000 </r>
       <r>   -0.2972    1.0000 </r>
       <r>   -0.2713    1.0000 </r>
       <r>   -0.2708    1.0000 </r>
       <r>   -0.2503    1.0000 </r>
       <r>   -0.2498    1.0000 </r>
       <r>   -0.2395    1.0000 </r>
       <r>   -0.2182    1.0000 </r>
       <r>   -0.2172    1.0000 </r>
       <r>   -0.1856    1.0000 </r>
       <r>   -0.1724    1.0000 </r>
       <r>   -0.1722    1.0000 </r>
       <r>   -0.1661    1.0000 </r>
       <r>   -0.1594    1.0000 </r>
       <r>   -0.1592    1.0000 </r>
       <r>   -0.1450    1.0000 </r>
       <r>   -0.1236    1.0000 </r>
       <r>   -0.1227    1.0000 </r>
       <r>   -0.1100    1.0000 </r>
       <r>   -0.0965    1.0000 </r>
       <r>   -0.0962    1.0000 </r>
       <r>   -0.0800    1.0000 </r>
       <r>   -0.0795    1.0000 </r>
       <r>   -0.0429    1.0000 </r>
       <r>    0.0491    1.0000 </r>
       <r>    0.0502    1.0000 </r>
       <r>    0.0710    1.0000 </r>
       <r>    0.0909    1.0000 </r>
       <r>    0.0911    1.0000 </r>
       <r>    0.0984    1.0000 </r>
       <r>    0.0987    1.0000 </r>
       <r>    0.1315    1.0000 </r>
       <r>    0.1365    1.0000 </r>
       <r>    0.1908    1.0001 </r>
       <r>    0.1912    1.0001 </r>
       <r>    0.2229    1.0002 </r>
       <r>    0.2242    1.0002 </r>
       <r>    0.2246    1.0002 </r>
       <r>    0.2497    1.0004 </r>
       <r>    0.2499    1.0004 </r>
       <r>    0.2587    1.0005 </r>
       <r>    0.2770    1.0008 </r>
       <r>    0.2836    1.0010 </r>
       <r>    0.2971    1.0013 </r>
       <r>    0.2979    1.0013 </r>
       <r>    0.3047    1.0016 </r>
       <r>    0.3278    1.0025 </r>
       <r>    0.3282    1.0025 </r>
       <r>    0.3315    1.0027 </r>
       <r>    0.3635    1.0050 </r>
       <r>    0.3636    1.0050 </r>
       <r>    0.4113    1.0109 </r>
       <r>    0.4301    1.0142 </r>
       <r>    0.4303    1.0143 </r>
       <r>    0.4381    1.0158 </r>
       <r>    0.4383    1.0158 </r>
       <r>    0.4387    1.0159 </r>
       <r>    0.5101    1.0316 </r>
       <r>    0.5103    1.0316 </r>
       <r>    0.5393    1.0353 </r>
       <r>    0.5401    1.0353 </r>
       <r>    0.5483    1.0354 </r>
       <r>    0.5617    1.0345 </r>
       <r>    0.6032    1.0178 </r>
       <r>    0.6036    1.0175 </r>
       <r>    0.6140    1.0090 </r>
       <r>    0.7148    0.7990 </r>
       <r>    0.7150    0.7983 </r>
       <r>    0.7994    0.4655 </r>
       <r>    0.8110    0.4172 </r>
       <r>    0.8211    0.3754 </r>
       <r>    0.8216    0.3732 </r>
       <r>    0.8904    0.1324 </r>
       <r>    0.8912    0.1301 </r>
       <r>    0.9291    0.0440 </r>
       <r>    0.9309    0.0409 </r>
       <r>    0.9750   -0.0145 </r>
       <r>    1.0131   -0.0330 </r>
       <r>    1.2015   -0.0068 </r>
       <r>    1.2026   -0.0066 </r>
       <r>    1.2365   -0.0036 </r>
       <r>    1.5866   -0.0000 </r>
       <r>    1.5893   -0.0000 </r>
       <r>    1.6476   -0.0000 </r>
       <r>    1.9046   -0.0000 </r>
       <r>    1.9113   -0.0000 </r>
       <r>    1.9119   -0.0000 </r>
       <r>    2.5575   -0.0000 </r>
       <r>    2.6773   -0.0000 </r>
       <r>    2.6786   -0.0000 </r>
       <r>    3.0137   -0.0000 </r>
       <r>    3.4416   -0.0000 </r>
       <r>    3.4569   -0.0000 </r>
       <r>    3.4583   -0.0000 </r>
       <r>    4.0189   -0.0000 </r>
       <r>    4.0289   -0.0000 </r>
       <r>    4.0303   -0.0000 </r>
       <r>    5.0004   -0.0000 </r>
       <r>    5.0033   -0.0000 </r>
       <r>    5.0046   -0.0000 </r>
       <r>    5.1899   -0.0000 </r>
       <r>    5.2495   -0.0000 </r>
       <r>    5.2502   -0.0000 </r>
       <r>    5.3228   -0.0000 </r>
       <r>    5.3326   -0.0000 </r>
       <r>    5.3329   -0.0000 </r>
       <r>    5.4060   -0.0000 </r>
       <r>    5.4283   -0.0000 </r>
       <r>    5.4303   -0.0000 </r>
       <r>    5.9486   -0.0000 </r>
       <r>    5.9577   -0.0000 </r>
       <r>    5.9886   -0.0000 </r>
      </set>
      <set comment="kpoint 2">
       <r>  -18.9013    1.0000 </r>
       <r>  -18.6035    1.0000 </r>
       <r>  -18.5965    1.0000 </r>
       <r>  -18.5489    1.0000 </r>
       <r>   -8.4287    1.0000 </r>
       <r>   -7.7530    1.0000 </r>
       <r>   -6.9014    1.0000 </r>
       <r>   -6.7516    1.0000 </r>
       <r>   -6.6387    1.0000 </r>
       <r>   -6.4984    1.0000 </r>
       <r>   -6.3707    1.0000 </r>
       <r>   -6.2466    1.0000 </r>
       <r>   -6.1951    1.0000 </r>
       <r>   -6.1404    1.0000 </r>
       <r>   -6.0467    1.0000 </r>
       <r>   -5.9558    1.0000 </r>
       <r>   -5.9224    1.0000 </r>
       <r>   -5.8575    1.0000 </r>
       <r>   -5.8101    1.0000 </r>
       <r>   -5.7584    1.0000 </r>
       <r>   -5.7303    1.0000 </r>
       <r>   -5.6960    1.0000 </r>
       <r>   -5.6695    1.0000 </r>
       <r>   -5.6240    1.0000 </r>
       <r>   -5.5722    1.0000 </r>
       <r>   -5.5359    1.0000 </r>
       <r>   -5.4721    1.0000 </r>
       <r>   -5.4391    1.0000 </r>
       <r>   -5.3622    1.0000 </r>
       <r>   -5.3598    1.0000 </r>
       <r>   -5.3374    1.0000 </r>
       <r>   -5.2898    1.0000 </r>
       <r>   -5.2506    1.0000 </r>
       <r>   -5.2320    1.0000 </r>
       <r>   -5.1902    1.0000 </r>
       <r>   -5.1733    1.0000 </r>
       <r>   -5.0829    1.0000 </r>
       <r>   -5.0396    1.0000 </r>
       <r>   -5.0243    1.0000 </r>
       <r>   -4.9864    1.0000 </r>
       <r>   -4.9604    1.0000 </r>
       <r>   -4.8971    1.0000 </r>
       <r>   -4.8535    1.0000 </r>
       <r>   -4.8494    1.0000 </r>
       <r>   -4.8249    1.0000 </r>
       <r>   -4.7897    1.0000 </r>
       <r>   -4.7634    1.0000 </r>
       <r>   -4.7247    1.0000 </r>
       <r>   -4.7066    1.0000 </r>
       <r>   -4.6852    1.0000 </r>
       <r>   -4.6367    1.0000 </r>
       <r>   -4.6093    1.0000 </r>
       <r>   -4.5973    1.0000 </r>
       <r>   -4.5601    1.0000 </r>
       <r>   -4.5385    1.0000 </r>
       <r>   -4.5225    1.0000 </r>
       <r>   -4.5024    1.0000 </r>
       <r>   -4.4757    1.0000 </r>
       <r>   -4.4538    1.0000 </r>
       <r>   -4.4380    1.0000 </r>
       <r>   -4.4080    1.0000 </r>
       <r>   -4.3765    1.0000 </r>
       <r>   -4.3524    1.0000 </r>
       <r>   -4.3287    1.0000 </r>
       <r>   -4.3031    1.0000 </r>
       <r>   -4.2983    1.0000 </r>
       <r>   -4.2857    1.0000 </r>
       <r>   -4.2615    1.0000 </r>
       <r>   -4.2556    1.0000 </r>
       <r>   -4.2034    1.0000 </r>
       <r>   -4.1710    1.0000 </r>
       <r>   -4.1521    1.0000 </r>
       <r>   -4.0815    1.0000 </r>
       <r>   -4.0613    1.0000 </r>
       <r>   -4.0461    1.0000 </r>
       <r>   -4.0337    1.0000 </r>
       <r>   -4.0165    1.0000 </r>
       <r>   -3.9847    1.0000 </r>
       <r>   -3.9450    1.0000 </r>
       <r>   -3.8953    1.0000 </r>
       <r>   -3.8092    1.0000 </r>
       <r>   -3.7925    1.0000 </r>
       <r>   -3.7521    1.0000 </r>
       <r>   -3.7248    1.0000 </r>
       <r>   -3.7128    1.0000 </r>
       <r>   -3.6790    1.0000 </r>
       <r>   -3.6630    1.0000 </r>
       <r>   -3.6425    1.0000 </r>
       <r>   -3.6323    1.0000 </r>
       <r>   -3.5986    1.0000 </r>
       <r>   -3.5424    1.0000 </r>
       <r>   -3.4939    1.0000 </r>
       <r>   -3.4737    1.0000 </r>
       <r>   -3.4541    1.0000 </r>
       <r>   -3.4065    1.0000 </r>
       <r>   -3.3944    1.0000 </r>
       <r>   -3.3746    1.0000 </r>
       <r>   -3.3367    1.0000 </r>
       <r>   -3.2719    1.0000 </r>
       <r>   -3.2523    1.0000 </r>
       <r>   -3.2328    1.0000 </r>
       <r>   -3.2106    1.0000 </r>
       <r>   -3.1793    1.0000 </r>
       <r>   -3.1701    1.0000 </r>
       <r>   -3.1347    1.0000 </r>
       <r>   -3.1174    1.0000 </r>
       <r>   -3.0338    1.0000 </r>
       <r>   -3.0029    1.0000 </r>
       <r>   -2.9815    1.0000 </r>
       <r>   -2.9562    1.0000 </r>
       <r>   -2.9282    1.0000 </r>
       <r>   -2.9069    1.0000 </r>
       <r>   -2.8707    1.0000 </r>
       <r>   -2.8671    1.0000 </r>
       <r>   -2.8573    1.0000 </r>
       <r>   -2.8411    1.0000 </r>
       <r>   -2.8008    1.0000 </r>
       <r>   -2.7876    1.0000 </r>
       <r>   -2.7761    1.0000 </r>
       <r>   -2.7607    1.0000 </r>
       <r>   -2.7149    1.0000 </r>
       <r>   -2.6998    1.0000 </r>
       <r>   -2.6865    1.0000 </r>
       <r>   -2.6792    1.0000 </r>
       <r>   -2.6723    1.0000 </r>
       <r>   -2.6511    1.0000 </r>
       <r>   -2.6059    1.0000 </r>
       <r>   -2.5928    1.0000 </r>
       <r>   -2.5802    1.0000 </r>
       <r>   -2.5773    1.0000 </r>
       <r>   -2.5588    1.0000 </r>
       <r>   -2.5502    1.0000 </r>
       <r>   -2.5431    1.0000 </r>
       <r>   -2.5096    1.0000 </r>
       <r>   -2.4991    1.0000 </r>
       <r>   -2.4773    1.0000 </r>
       <r>   -2.4640    1.0000 </r>
       <r>   -2.4488    1.0000 </r>
       <r>   -2.4317    1.0000 </r>
       <r>   -2.4219    1.0000 </r>
       <r>   -2.4137    1.0000 </r>
       <r>   -2.4045    1.0000 </r>
       <r>   -2.3915    1.0000 </r>
       <r>   -2.3733    1.0000 </r>
       <r>   -2.3625    1.0000 </r>
       <r>   -2.3480    1.0000 </r>
       <r>   -2.3213    1.0000 </r>
       <r>   -2.3025    1.0000 </r>
       <r>   -2.2925    1.0000 </r>
       <r>   -2.2839    1.0000 </r>
       <r>   -2.2620    1.0000 </r>
       <r>   -2.2544    1.0000 </r>
       <r>   -2.2322    1.0000 </r>
       <r>   -2.2227    1.0000 </r>
       <r>   -2.2004    1.0000 </r>
       <r>   -2.1922    1.0000 </r>
       <r>   -2.1763    1.0000 </r>
       <r>   -2.1513    1.0000 </r>
       <r>   -2.1037    1.0000 </r>
       <r>   -2.0833    1.0000 </r>
       <r>   -2.0729    1.0000 </r>
       <r>   -2.0392    1.0000 </r>
       <r>   -2.0090    1.0000 </r>
       <r>   -1.9933    1.0000 </r>
       <r>   -1.9916    1.0000 </r>
       <r>   -1.9724    1.0000 </r>
       <r>   -1.9577    1.0000 </r>
       <r>   -1.9530    1.0000 </r>
       <r>   -1.9497    1.0000 </r>
       <r>   -1.9143    1.0000 </r>
       <r>   -1.8608    1.0000 </r>
       <r>   -1.8051    1.0000 </r>
       <r>   -1.7901    1.0000 </r>
       <r>   -1.7725    1.0000 </r>
       <r>   -1.7482    1.0000 </r>
       <r>   -1.7200    1.0000 </r>
       <r>   -1.6611    1.0000 </r>
       <r>   -1.6593    1.0000 </r>
       <r>   -1.6548    1.0000 </r>
       <r>   -1.6229    1.0000 </r>
       <r>   -1.5833    1.0000 </r>
       <r>   -1.5285    1.0000 </r>
       <r>   -1.5157    1.0000 </r>
       <r>   -1.5089    1.0000 </r>
       <r>   -1.4727    1.0000 </r>
       <r>   -1.4053    1.0000 </r>
       <r>   -1.3722    1.0000 </r>
       <r>   -1.3426    1.0000 </r>
       <r>   -1.3030    1.0000 </r>
       <r>   -1.2809    1.0000 </r>
       <r>   -1.2639    1.0000 </r>
       <r>   -1.2245    1.0000 </r>
       <r>   -1.2030    1.0000 </r>
       <r>   -1.1694    1.0000 </r>
       <r>   -1.1471    1.0000 </r>
       <r>   -1.1084    1.0000 </r>
       <r>   -1.0925    1.0000 </r>
       <r>   -1.0720    1.0000 </r>
       <r>   -1.0444    1.0000 </r>
       <r>   -1.0222    1.0000 </r>
       <r>   -0.9989    1.0000 </r>
       <r>   -0.9753    1.0000 </r>
       <r>   -0.9560    1.0000 </r>
       <r>   -0.9332    1.0000 </r>
       <r>   -0.9171    1.0000 </r>
       <r>   -0.9018    1.0000 </r>
       <r>   -0.8939    1.0000 </r>
       <r>   -0.8843    1.0000 </r>
       <r>   -0.8658    1.0000 </r>
       <r>   -0.8602    1.0000 </r>
       <r>   -0.8401    1.0000 </r>
       <r>   -0.8164    1.0000 </r>
       <r>   -0.7902    1.0000 </r>
       <r>   -0.7549    1.0000 </r>
       <r>   -0.7345    1.0000 </r>
       <r>   -0.7164    1.0000 </r>
       <r>   -0.6870    1.0000 </r>
       <r>   -0.6683    1.0000 </r>
       <r>   -0.6553    1.0000 </r>
       <r>   -0.6337    1.0000 </r>
       <r>   -0.6049    1.0000 </r>
       <r>   -0.5980    1.0000 </r>
       <r>   -0.5542    1.0000 </r>
       <r>   -0.5441    1.0000 </r>
       <r>   -0.5206    1.0000 </r>
       <r>   -0.4872    1.0000 </r>
       <r>   -0.4259    1.0000 </r>
       <r>   -0.4182    1.0000 </r>
       <r>   -0.3954    1.0000 </r>
       <r>   -0.3866    1.0000 </r>
       <r>   -0.3460    1.0000 </r>
       <r>   -0.3233    1.0000 </r>
       <r>   -0.2904    1.0000 </r>
       <r>   -0.2668    1.0000 </r>
       <r>   -0.2579    1.0000 </r>
       <r>   -0.2398    1.0000 </r>
       <r>   -0.2125    1.0000 </r>
       <r>   -0.1546    1.0000 </r>
       <r>   -0.1383    1.0000 </r>
       <r>   -0.1181    1.0000 </r>
       <r>   -0.1058    1.0000 </r>
       <r>   -0.0904    1.0000 </r>
       <r>   -0.0672    1.0000 </r>
       <r>   -0.0461    1.0000 </r>
       <r>   -0.0186    1.0000 </r>
       <r>   -0.0086    1.0000 </r>
       <r>    0.0122    1.0000 </r>
       <r>    0.0255    1.0000 </r>
       <r>    0.0519    1.0000 </r>
       <r>    0.0694    1.0000 </r>
       <r>    0.0877    1.0000 </r>
       <r>    0.1071    1.0000 </r>
       <r>    0.1251    1.0000 </r>
       <r>    0.1597    1.0000 </r>
       <r>    0.1715    1.0001 </r>
       <r>    0.1868    1.0001 </r>
       <r>    0.1954    1.0001 </r>
       <r>    0.2259    1.0002 </r>
       <r>    0.2400    1.0003 </r>
       <r>    0.2603    1.0006 </r>
       <r>    0.2884    1.0011 </r>
       <r>    0.3093    1.0017 </r>
       <r>    0.3421    1.0033 </r>
       <r>    0.3593    1.0046 </r>
       <r>    0.3643    1.0050 </r>
       <r>    0.3765    1.0062 </r>
       <r>    0.4191    1.0122 </r>
       <r>    0.4288    1.0140 </r>
       <r>    0.4418    1.0165 </r>
       <r>    0.4658    1.0218 </r>
       <r>    0.4755    1.0240 </r>
       <r>    0.5018    1.0299 </r>
       <r>    0.5197    1.0332 </r>
       <r>    0.5343    1.0349 </r>
       <r>    0.5446    1.0354 </r>
       <r>    0.5619    1.0344 </r>
       <r>    0.5846    1.0282 </r>
       <r>    0.5932    1.0241 </r>
       <r>    0.6282    0.9939 </r>
       <r>    0.6298    0.9919 </r>
       <r>    0.6466    0.9678 </r>
       <r>    0.6678    0.9277 </r>
       <r>    0.6828    0.8924 </r>
       <r>    0.6924    0.8669 </r>
       <r>    0.7297    0.7475 </r>
       <r>    0.7371    0.7201 </r>
       <r>    0.7423    0.7007 </r>
       <r>    0.7752    0.5679 </r>
       <r>    0.7972    0.4748 </r>
       <r>    0.8138    0.4055 </r>
       <r>    0.8285    0.3457 </r>
       <r>    0.8474    0.2727 </r>
       <r>    0.8562    0.2405 </r>
       <r>    0.8719    0.1876 </r>
       <r>    0.8941    0.1222 </r>
       <r>    0.9152    0.0713 </r>
       <r>    0.9359    0.0323 </r>
       <r>    0.9703   -0.0105 </r>
       <r>    1.0100   -0.0323 </r>
       <r>    1.0366   -0.0355 </r>
       <r>    1.0597   -0.0337 </r>
       <r>    1.0743   -0.0312 </r>
       <r>    1.1249   -0.0200 </r>
       <r>    1.2320   -0.0039 </r>
       <r>    1.3142   -0.0007 </r>
       <r>    1.3574   -0.0002 </r>
       <r>    1.5430   -0.0000 </r>
       <r>    1.6535   -0.0000 </r>
       <r>    1.7815   -0.0000 </r>
       <r>    1.8797   -0.0000 </r>
       <r>    1.9538   -0.0000 </r>
       <r>    1.9748   -0.0000 </r>
       <r>    2.1625   -0.0000 </r>
       <r>    2.5634   -0.0000 </r>
       <r>    2.7663   -0.0000 </r>
       <r>    2.9104   -0.0000 </r>
       <r>    3.1694   -0.0000 </r>
       <r>    3.2512   -0.0000 </r>
       <r>    3.4503   -0.0000 </r>
       <r>    3.5977   -0.0000 </r>
       <r>    4.0059   -0.0000 </r>
       <r>    4.1826   -0.0000 </r>
       <r>    4.2225   -0.0000 </r>
       <r>    4.3011   -0.0000 </r>
       <r>    4.4807   -0.0000 </r>
       <r>    4.6443   -0.0000 </r>
       <r>    4.7381   -0.0000 </r>
       <r>    4.8605   -0.0000 </r>
       <r>    4.9786   -0.0000 </r>
       <r>    5.0823   -0.0000 </r>
       <r>    5.4422   -0.0000 </r>
       <r>    5.4806   -0.0000 </r>
       <r>    5.5196   -0.0000 </r>
       <r>    5.6602   -0.0000 </r>
       <r>    5.7703   -0.0000 </r>
       <r>    5.8569   -0.0000 </r>
       <r>    5.9859   -0.0000 </r>
       <r>    6.0893   -0.0000 </r>
      </set>
      <set comment="kpoint 3">
       <r>  -18.9014    1.0000 </r>
       <r>  -18.6007    1.0000 </r>
       <r>  -18.5993    1.0000 </r>
       <r>  -18.5488    1.0000 </r>
       <r>   -8.4287    1.0000 </r>
       <r>   -7.7530    1.0000 </r>
       <r>   -6.9015    1.0000 </r>
       <r>   -6.7519    1.0000 </r>
       <r>   -6.6384    1.0000 </r>
       <r>   -6.4983    1.0000 </r>
       <r>   -6.3711    1.0000 </r>
       <r>   -6.2467    1.0000 </r>
       <r>   -6.1952    1.0000 </r>
       <r>   -6.1398    1.0000 </r>
       <r>   -6.0463    1.0000 </r>
       <r>   -5.9559    1.0000 </r>
       <r>   -5.9224    1.0000 </r>
       <r>   -5.8581    1.0000 </r>
       <r>   -5.8101    1.0000 </r>
       <r>   -5.7583    1.0000 </r>
       <r>   -5.7300    1.0000 </r>
       <r>   -5.6947    1.0000 </r>
       <r>   -5.6695    1.0000 </r>
       <r>   -5.6250    1.0000 </r>
       <r>   -5.5734    1.0000 </r>
       <r>   -5.5354    1.0000 </r>
       <r>   -5.4726    1.0000 </r>
       <r>   -5.4386    1.0000 </r>
       <r>   -5.3621    1.0000 </r>
       <r>   -5.3599    1.0000 </r>
       <r>   -5.3371    1.0000 </r>
       <r>   -5.2899    1.0000 </r>
       <r>   -5.2499    1.0000 </r>
       <r>   -5.2321    1.0000 </r>
       <r>   -5.1898    1.0000 </r>
       <r>   -5.1750    1.0000 </r>
       <r>   -5.0813    1.0000 </r>
       <r>   -5.0400    1.0000 </r>
       <r>   -5.0248    1.0000 </r>
       <r>   -4.9858    1.0000 </r>
       <r>   -4.9603    1.0000 </r>
       <r>   -4.8971    1.0000 </r>
       <r>   -4.8531    1.0000 </r>
       <r>   -4.8494    1.0000 </r>
       <r>   -4.8246    1.0000 </r>
       <r>   -4.7893    1.0000 </r>
       <r>   -4.7642    1.0000 </r>
       <r>   -4.7245    1.0000 </r>
       <r>   -4.7061    1.0000 </r>
       <r>   -4.6862    1.0000 </r>
       <r>   -4.6364    1.0000 </r>
       <r>   -4.6096    1.0000 </r>
       <r>   -4.5973    1.0000 </r>
       <r>   -4.5597    1.0000 </r>
       <r>   -4.5386    1.0000 </r>
       <r>   -4.5229    1.0000 </r>
       <r>   -4.5021    1.0000 </r>
       <r>   -4.4753    1.0000 </r>
       <r>   -4.4535    1.0000 </r>
       <r>   -4.4382    1.0000 </r>
       <r>   -4.4080    1.0000 </r>
       <r>   -4.3762    1.0000 </r>
       <r>   -4.3522    1.0000 </r>
       <r>   -4.3293    1.0000 </r>
       <r>   -4.3031    1.0000 </r>
       <r>   -4.2978    1.0000 </r>
       <r>   -4.2855    1.0000 </r>
       <r>   -4.2615    1.0000 </r>
       <r>   -4.2563    1.0000 </r>
       <r>   -4.2034    1.0000 </r>
       <r>   -4.1716    1.0000 </r>
       <r>   -4.1517    1.0000 </r>
       <r>   -4.0809    1.0000 </r>
       <r>   -4.0613    1.0000 </r>
       <r>   -4.0462    1.0000 </r>
       <r>   -4.0335    1.0000 </r>
       <r>   -4.0171    1.0000 </r>
       <r>   -3.9848    1.0000 </r>
       <r>   -3.9448    1.0000 </r>
       <r>   -3.8958    1.0000 </r>
       <r>   -3.8085    1.0000 </r>
       <r>   -3.7924    1.0000 </r>
       <r>   -3.7526    1.0000 </r>
       <r>   -3.7241    1.0000 </r>
       <r>   -3.7128    1.0000 </r>
       <r>   -3.6798    1.0000 </r>
       <r>   -3.6640    1.0000 </r>
       <r>   -3.6421    1.0000 </r>
       <r>   -3.6318    1.0000 </r>
       <r>   -3.5992    1.0000 </r>
       <r>   -3.5424    1.0000 </r>
       <r>   -3.4941    1.0000 </r>
       <r>   -3.4738    1.0000 </r>
       <r>   -3.4528    1.0000 </r>
       <r>   -3.4071    1.0000 </r>
       <r>   -3.3936    1.0000 </r>
       <r>   -3.3755    1.0000 </r>
       <r>   -3.3374    1.0000 </r>
       <r>   -3.2724    1.0000 </r>
       <r>   -3.2525    1.0000 </r>
       <r>   -3.2336    1.0000 </r>
       <r>   -3.2103    1.0000 </r>
       <r>   -3.1803    1.0000 </r>
       <r>   -3.1696    1.0000 </r>
       <r>   -3.1339    1.0000 </r>
       <r>   -3.1176    1.0000 </r>
       <r>   -3.0338    1.0000 </r>
       <r>   -3.0027    1.0000 </r>
       <r>   -2.9809    1.0000 </r>
       <r>   -2.9560    1.0000 </r>
       <r>   -2.9281    1.0000 </r>
       <r>   -2.9060    1.0000 </r>
       <r>   -2.8713    1.0000 </r>
       <r>   -2.8682    1.0000 </r>
       <r>   -2.8579    1.0000 </r>
       <r>   -2.8424    1.0000 </r>
       <r>   -2.8022    1.0000 </r>
       <r>   -2.7868    1.0000 </r>
       <r>   -2.7760    1.0000 </r>
       <r>   -2.7615    1.0000 </r>
       <r>   -2.7130    1.0000 </r>
       <r>   -2.7008    1.0000 </r>
       <r>   -2.6858    1.0000 </r>
       <r>   -2.6777    1.0000 </r>
[...]
       <r>   -18.0980    -0.5073     8.0109 </r>
       <r>   -18.0012    -0.1009     8.0012 </r>
       <r>   -17.9044    -0.0112     8.0001 </r>
       <r>   -17.8076    -0.0007     8.0000 </r>
       <r>   -17.7108    -0.0000     8.0000 </r>
       <r>   -17.6140    -0.0000     8.0000 </r>
       <r>   -17.5172    -0.0000     8.0000 </r>
       <r>   -17.4204    -0.0000     8.0000 </r>
       <r>   -17.3236    -0.0000     8.0000 </r>
       <r>   -17.2268    -0.0000     8.0000 </r>
       <r>   -17.1300     0.0000     8.0000 </r>
       <r>   -17.0332     0.0000     8.0000 </r>
       <r>   -16.9364     0.0000     8.0000 </r>
       <r>   -16.8396     0.0000     8.0000 </r>
       <r>   -16.7428     0.0000     8.0000 </r>
       <r>   -16.6460     0.0000     8.0000 </r>
       <r>   -16.5492     0.0000     8.0000 </r>
       <r>   -16.4524     0.0000     8.0000 </r>
       <r>   -16.3556     0.0000     8.0000 </r>
       <r>   -16.2589     0.0000     8.0000 </r>
       <r>   -16.1621     0.0000     8.0000 </r>
       <r>   -16.0653     0.0000     8.0000 </r>
       <r>   -15.9685     0.0000     8.0000 </r>
       <r>   -15.8717     0.0000     8.0000 </r>
       <r>   -15.7749     0.0000     8.0000 </r>
       <r>   -15.6781     0.0000     8.0000 </r>
       <r>   -15.5813     0.0000     8.0000 </r>
       <r>   -15.4845     0.0000     8.0000 </r>
       <r>   -15.3877     0.0000     8.0000 </r>
       <r>   -15.2909     0.0000     8.0000 </r>
       <r>   -15.1941     0.0000     8.0000 </r>
       <r>   -15.0973     0.0000     8.0000 </r>
       <r>   -15.0005     0.0000     8.0000 </r>
       <r>   -14.9037     0.0000     8.0000 </r>
       <r>   -14.8069     0.0000     8.0000 </r>
       <r>   -14.7101     0.0000     8.0000 </r>
       <r>   -14.6133     0.0000     8.0000 </r>
       <r>   -14.5165     0.0000     8.0000 </r>
       <r>   -14.4197     0.0000     8.0000 </r>
       <r>   -14.3230     0.0000     8.0000 </r>
       <r>   -14.2262     0.0000     8.0000 </r>
       <r>   -14.1294     0.0000     8.0000 </r>
       <r>   -14.0326     0.0000     8.0000 </r>
       <r>   -13.9358     0.0000     8.0000 </r>
       <r>   -13.8390     0.0000     8.0000 </r>
       <r>   -13.7422     0.0000     8.0000 </r>
       <r>   -13.6454     0.0000     8.0000 </r>
       <r>   -13.5486     0.0000     8.0000 </r>
       <r>   -13.4518     0.0000     8.0000 </r>
       <r>   -13.3550     0.0000     8.0000 </r>
       <r>   -13.2582     0.0000     8.0000 </r>
       <r>   -13.1614     0.0000     8.0000 </r>
       <r>   -13.0646     0.0000     8.0000 </r>
       <r>   -12.9678     0.0000     8.0000 </r>
       <r>   -12.8710     0.0000     8.0000 </r>
       <r>   -12.7742     0.0000     8.0000 </r>
       <r>   -12.6774     0.0000     8.0000 </r>
       <r>   -12.5806     0.0000     8.0000 </r>
       <r>   -12.4838     0.0000     8.0000 </r>
       <r>   -12.3870     0.0000     8.0000 </r>
       <r>   -12.2903     0.0000     8.0000 </r>
       <r>   -12.1935     0.0000     8.0000 </r>
       <r>   -12.0967     0.0000     8.0000 </r>
       <r>   -11.9999     0.0000     8.0000 </r>
       <r>   -11.9031     0.0000     8.0000 </r>
       <r>   -11.8063     0.0000     8.0000 </r>
       <r>   -11.7095     0.0000     8.0000 </r>
       <r>   -11.6127     0.0000     8.0000 </r>
       <r>   -11.5159     0.0000     8.0000 </r>
       <r>   -11.4191     0.0000     8.0000 </r>
       <r>   -11.3223     0.0000     8.0000 </r>
       <r>   -11.2255     0.0000     8.0000 </r>
       <r>   -11.1287     0.0000     8.0000 </r>
       <r>   -11.0319     0.0000     8.0000 </r>
       <r>   -10.9351     0.0000     8.0000 </r>
       <r>   -10.8383     0.0000     8.0000 </r>
       <r>   -10.7415     0.0000     8.0000 </r>
       <r>   -10.6447     0.0000     8.0000 </r>
       <r>   -10.5479     0.0000     8.0000 </r>
       <r>   -10.4511     0.0000     8.0000 </r>
       <r>   -10.3543     0.0000     8.0000 </r>
       <r>   -10.2576    -0.0000     8.0000 </r>
       <r>   -10.1608    -0.0000     8.0000 </r>
       <r>   -10.0640    -0.0000     8.0000 </r>
       <r>    -9.9672    -0.0000     8.0000 </r>
       <r>    -9.8704    -0.0000     8.0000 </r>
       <r>    -9.7736    -0.0000     8.0000 </r>
       <r>    -9.6768    -0.0000     8.0000 </r>
       <r>    -9.5800    -0.0000     8.0000 </r>
       <r>    -9.4832    -0.0000     8.0000 </r>
       <r>    -9.3864    -0.0000     8.0000 </r>
       <r>    -9.2896    -0.0000     8.0000 </r>
       <r>    -9.1928    -0.0000     8.0000 </r>
       <r>    -9.0960    -0.0006     7.9999 </r>
       <r>    -8.9992    -0.0048     7.9995 </r>
       <r>    -8.9024    -0.0225     7.9973 </r>
       <r>    -8.8056    -0.0571     7.9918 </r>
       <r>    -8.7088    -0.0296     7.9889 </r>
       <r>    -8.6120     0.3222     8.0201 </r>
       <r>    -8.5152     1.1812     8.1344 </r>
       <r>    -8.4184     1.9276     8.3210 </r>
       <r>    -8.3217     1.7709     8.4924 </r>
       <r>    -8.2249     1.5600     8.6434 </r>
       <r>    -8.1281     2.3278     8.8687 </r>
       <r>    -8.0313     3.0611     9.1650 </r>
       <r>    -7.9345     2.6831     9.4248 </r>
       <r>    -7.8377     2.1206     9.6300 </r>
       <r>    -7.7409     2.8468     9.9056 </r>
       <r>    -7.6441     4.6356    10.3543 </r>
       <r>    -7.5473     6.0115    10.9362 </r>
       <r>    -7.4505     6.2284    11.5390 </r>
       <r>    -7.3537     5.2205    12.0444 </r>
       <r>    -7.2569     3.0842    12.3429 </r>
       <r>    -7.1601     2.1219    12.5483 </r>
       <r>    -7.0633     5.1269    13.0445 </r>
       <r>    -6.9665     9.9675    14.0093 </r>
       <r>    -6.8697    11.4770    15.1203 </r>
       <r>    -6.7729     9.7864    16.0675 </r>
       <r>    -6.6761    10.0409    17.0394 </r>
       <r>    -6.5793    12.8041    18.2788 </r>
       <r>    -6.4825    14.3065    19.6636 </r>
       <r>    -6.3857    15.2598    21.1407 </r>
       <r>    -6.2890    18.4018    22.9219 </r>
       <r>    -6.1922    21.3801    24.9914 </r>
       <r>    -6.0954    21.7543    27.0971 </r>
       <r>    -5.9986    22.1557    29.2417 </r>
       <r>    -5.9018    25.5198    31.7119 </r>
       <r>    -5.8050    31.9216    34.8017 </r>
       <r>    -5.7082    39.7042    38.6449 </r>
       <r>    -5.6114    45.4583    43.0450 </r>
       <r>    -5.5146    48.3868    47.7287 </r>
       <r>    -5.4178    51.9405    52.7562 </r>
       <r>    -5.3210    57.5345    58.3253 </r>
       <r>    -5.2242    62.0586    64.3323 </r>
       <r>    -5.1274    63.2713    70.4566 </r>
       <r>    -5.0306    65.0992    76.7579 </r>
       <r>    -4.9338    69.6824    83.5028 </r>
       <r>    -4.8370    71.9447    90.4667 </r>
       <r>    -4.7402    70.6246    97.3029 </r>
       <r>    -4.6434    70.9855   104.1739 </r>
       <r>    -4.5466    76.3686   111.5660 </r>
       <r>    -4.4498    82.2160   119.5241 </r>
       <r>    -4.3530    81.0381   127.3682 </r>
       <r>    -4.2563    74.0097   134.5320 </r>
       <r>    -4.1595    66.8888   141.0065 </r>
       <r>    -4.0627    62.0119   147.0090 </r>
       <r>    -3.9659    58.5204   152.6735 </r>
       <r>    -3.8691    58.2609   158.3128 </r>
       <r>    -3.7723    64.8400   164.5890 </r>
       <r>    -3.6755    72.1041   171.5684 </r>
       <r>    -3.5787    73.4614   178.6791 </r>
       <r>    -3.4819    74.9577   185.9346 </r>
       <r>    -3.3851    79.8934   193.6679 </r>
       <r>    -3.2883    83.5855   201.7586 </r>
       <r>    -3.1915    84.3629   209.9245 </r>
       <r>    -3.0947    82.0088   217.8626 </r>
       <r>    -2.9979    79.9224   225.5987 </r>
       <r>    -2.9011    83.1320   233.6454 </r>
       <r>    -2.8043    89.0658   242.2666 </r>
       <r>    -2.7075    94.0740   251.3725 </r>
       <r>    -2.6107   100.1417   261.0657 </r>
       <r>    -2.5139   108.5120   271.5692 </r>
       <r>    -2.4171   115.3546   282.7349 </r>
       <r>    -2.3204   116.6093   294.0221 </r>
       <r>    -2.2236   112.2322   304.8857 </r>
       <r>    -2.1268   105.7358   315.1204 </r>
       <r>    -2.0300   101.3249   324.9282 </r>
       <r>    -1.9332    98.6025   334.4724 </r>
       <r>    -1.8364    93.4973   343.5225 </r>
       <r>    -1.7396    84.2216   351.6747 </r>
       <r>    -1.6428    73.4373   358.7831 </r>
       <r>    -1.5460    67.7083   365.3369 </r>
       <r>    -1.4492    69.5721   372.0712 </r>
       <r>    -1.3524    74.9584   379.3268 </r>
       <r>    -1.2556    80.4908   387.1179 </r>
       <r>    -1.1588    85.7033   395.4136 </r>
       <r>    -1.0620    92.0915   404.3276 </r>
       <r>    -0.9652    96.9347   413.7104 </r>
       <r>    -0.8684    92.9959   422.7120 </r>
       <r>    -0.7716    82.4914   430.6967 </r>
       <r>    -0.6748    76.0488   438.0579 </r>
       <r>    -0.5780    75.0877   445.3260 </r>
       <r>    -0.4812    74.9984   452.5855 </r>
       <r>    -0.3844    77.6192   460.0987 </r>
       <r>    -0.2877    83.1704   468.1492 </r>
       <r>    -0.1909    85.6944   476.4440 </r>
       <r>    -0.0941    82.9376   484.4719 </r>
       <r>     0.0027    78.2772   492.0488 </r>
       <r>     0.0995    75.3406   499.3414 </r>
       <r>     0.1963    76.3789   506.7345 </r>
       <r>     0.2931    80.9424   514.5693 </r>
       <r>     0.3899    87.1360   523.0037 </r>
       <r>     0.4867    94.5771   532.1583 </r>
       <r>     0.5835   101.9785   542.0293 </r>
       <r>     0.6803   106.3343   552.3220 </r>
       <r>     0.7771   105.6433   562.5477 </r>
       <r>     0.8739    97.5843   571.9934 </r>
       <r>     0.9707    84.1206   580.1359 </r>
       <r>     1.0675    71.8642   587.0920 </r>
       <r>     1.1643    60.2780   592.9266 </r>
       <r>     1.2611    45.7701   597.3569 </r>
       <r>     1.3579    31.1883   600.3758 </r>
       <r>     1.4547    21.3042   602.4379 </r>
       <r>     1.5515    17.8685   604.1675 </r>
       <r>     1.6483    17.8717   605.8974 </r>
       <r>     1.7450    17.4162   607.5832 </r>
       <r>     1.8418    17.9773   609.3233 </r>
       <r>     1.9386    21.1629   611.3718 </r>
       <r>     2.0354    23.3760   613.6345 </r>
       <r>     2.1322    22.5623   615.8184 </r>
       <r>     2.2290    20.2082   617.7745 </r>
       <r>     2.3258    16.4669   619.3684 </r>
       <r>     2.4226    12.1841   620.5477 </r>
       <r>     2.5194    11.7528   621.6854 </r>
       <r>     2.6162    16.1111   623.2448 </r>
       <r>     2.7130    19.0375   625.0876 </r>
       <r>     2.8098    17.5905   626.7902 </r>
       <r>     2.9066    15.9386   628.3330 </r>
       <r>     3.0034    15.9743   629.8793 </r>
       <r>     3.1002    15.4645   631.3761 </r>
       <r>     3.1970    13.9448   632.7259 </r>
       <r>     3.2938    13.6285   634.0451 </r>
       <r>     3.3906    17.0335   635.6939 </r>
       <r>     3.4874    21.8416   637.8080 </r>
       <r>     3.5842    21.9187   639.9297 </r>
       <r>     3.6810    16.7839   641.5543 </r>
       <r>     3.7777    11.9432   642.7103 </r>
       <r>     3.8745    11.9512   643.8671 </r>
       <r>     3.9713    16.2224   645.4374 </r>
       <r>     4.0681    19.8439   647.3582 </r>
       <r>     4.1649    20.3123   649.3243 </r>
       <r>     4.2617    18.4123   651.1065 </r>
       <r>     4.3585    15.2694   652.5845 </r>
       <r>     4.4553    12.7784   653.8214 </r>
       <r>     4.5521    11.8551   654.9689 </r>
       <r>     4.6489    12.9449   656.2219 </r>
       <r>     4.7457    15.4795   657.7203 </r>
       <r>     4.8425    16.9664   659.3625 </r>
       <r>     4.9393    16.2450   660.9350 </r>
       <r>     5.0361    14.1994   662.3094 </r>
       <r>     5.1329    12.5349   663.5227 </r>
       <r>     5.2297    12.2102   664.7046 </r>
       <r>     5.3265    12.9925   665.9622 </r>
       <r>     5.4233    14.8827   667.4028 </r>
       <r>     5.5201    17.1482   669.0627 </r>
       <r>     5.6169    17.2809   670.7354 </r>
       <r>     5.7136    14.0714   672.0974 </r>
       <r>     5.8104     9.8854   673.0543 </r>
       <r>     5.9072     7.8377   673.8129 </r>
       <r>     6.0040     8.0886   674.5959 </r>
       <r>     6.1008     7.9757   675.3679 </r>
       <r>     6.1976     5.3334   675.8841 </r>
       <r>     6.2944     1.7469   676.0532 </r>
       <r>     6.3912    -0.1121   676.0424 </r>
       <r>     6.4880    -0.3053   676.0128 </r>
       <r>     6.5848    -0.1103   676.0021 </r>
       <r>     6.6816    -0.0198   676.0002 </r>
       <r>     6.7784    -0.0020   676.0000 </r>
       <r>     6.8752    -0.0001   676.0000 </r>
       <r>     6.9720    -0.0000   676.0000 </r>
       <r>     7.0688    -0.0000   676.0000 </r>
       <r>     7.1656    -0.0000   676.0000 </r>
       <r>     7.2624    -0.0000   676.0000 </r>
       <r>     7.3592    -0.0000   676.0000 </r>
       <r>     7.4560     0.0000   676.0000 </r>
       <r>     7.5528     0.0000   676.0000 </r>
       <r>     7.6496     0.0000   676.0000 </r>
       <r>     7.7463     0.0000   676.0000 </r>
       <r>     7.8431     0.0000   676.0000 </r>
       <r>     7.9399     0.0000   676.0000 </r>
       <r>     8.0367     0.0000   676.0000 </r>
       <r>     8.1335     0.0000   676.0000 </r>
      </set>
     </set>
    </array>
   </total>
  </dos>
 </calculation>
 <structure name="finalpos" >
  <crystal>
   <varray name="basis" >
    <v>       8.46376883       0.00000000      -0.00000000 </v>
    <v>      -4.23188442       7.32983882       0.00000000 </v>
    <v>       0.00000000       0.00000000      34.55319157 </v>
   </varray>
   <i name="volume">   2143.61301901 </i>
   <varray name="rec_basis" >
    <v>       0.11815067       0.06821432      -0.00000000 </v>
    <v>      -0.00000000       0.13642865       0.00000000 </v>
    <v>       0.00000000       0.00000000       0.02894089 </v>
   </varray>
  </crystal>
  <varray name="positions" >
   <v>       0.11111111       0.22222222       0.33333333 </v>
   <v>       0.00000000       0.00000000       0.46666667 </v>
   <v>       0.22222222       0.11111111       0.40000000 </v>
   <v>       0.11111111       0.22222222       0.53333333 </v>
   <v>       0.32905648       0.00701019       0.66670245 </v>
   <v>       0.22222222       0.11111111       0.60000000 </v>
   <v>       0.11111111       0.55555556       0.33333333 </v>
   <v>       0.00000000       0.33333333       0.46666667 </v>
   <v>       0.22222222       0.44444444       0.40000000 </v>
   <v>       0.11111111       0.55555556       0.53333333 </v>
   <v>       0.34356964       0.33647565       0.66683704 </v>
   <v>       0.22222222       0.44444444       0.60000000 </v>
   <v>       0.11111111       0.88888889       0.33333333 </v>
   <v>       0.00000000       0.66666667       0.46666667 </v>
   <v>       0.22222222       0.77777778       0.40000000 </v>
   <v>       0.11111111       0.88888889       0.53333333 </v>
   <v>       0.34149332       0.65938739       0.66706570 </v>
   <v>       0.22222222       0.77777778       0.60000000 </v>
   <v>       0.44444444       0.22222222       0.33333333 </v>
   <v>       0.33333333       0.00000000       0.46666667 </v>
   <v>       0.55555556       0.11111111       0.40000000 </v>
   <v>       0.44444444       0.22222222       0.53333333 </v>
   <v>       0.67626932       0.00440516       0.66690211 </v>
   <v>       0.55555556       0.11111111       0.60000000 </v>
   <v>       0.44444444       0.55555556       0.33333333 </v>
   <v>       0.33333333       0.33333333       0.46666667 </v>
   <v>       0.55555556       0.44444444       0.40000000 </v>
   <v>       0.44444444       0.55555556       0.53333333 </v>
   <v>       0.65851675       0.32170799       0.66669630 </v>
   <v>       0.55555556       0.44444444       0.60000000 </v>
   <v>       0.44444444       0.88888889       0.33333333 </v>
   <v>       0.33333333       0.66666667       0.46666667 </v>
   <v>       0.55555556       0.77777778       0.40000000 </v>
   <v>       0.44444444       0.88888889       0.53333333 </v>
   <v>       0.66130724       0.67166771       0.66674252 </v>
   <v>       0.55555556       0.77777778       0.60000000 </v>
   <v>       0.77777778       0.22222222       0.33333333 </v>
   <v>       0.66666667       0.00000000       0.46666667 </v>
   <v>       0.88888889       0.11111111       0.40000000 </v>
   <v>       0.77777778       0.22222222       0.53333333 </v>
   <v>       0.99374413       0.98945091       0.66684632 </v>
   <v>       0.88888889       0.11111111       0.60000000 </v>
   <v>       0.77777778       0.55555556       0.33333333 </v>
   <v>       0.66666667       0.33333333       0.46666667 </v>
   <v>       0.88888889       0.44444444       0.40000000 </v>
   <v>       0.77777778       0.55555556       0.53333333 </v>
   <v>       0.98349364       0.32409947       0.66712136 </v>
   <v>       0.88888889       0.44444444       0.60000000 </v>
   <v>       0.77777778       0.88888889       0.33333333 </v>
   <v>       0.66666667       0.66666667       0.46666667 </v>
   <v>       0.88888889       0.77777778       0.40000000 </v>
   <v>       0.77777778       0.88888889       0.53333333 </v>
   <v>       0.00610291       0.68197252       0.66725719 </v>
   <v>       0.88888889       0.77777778       0.60000000 </v>
   <v>       0.44877946       0.89577206       0.70060686 </v>
   <v>       0.11064594       0.55491508       0.69971237 </v>
   <v>       0.76910804       0.55246132       0.70063367 </v>
   <v>       0.11249974       0.21646608       0.70069995 </v>
  </varray>
  <varray name="selective"  type="logical" >
   <v type="logical" >  F  F  F </v>
   <v type="logical" >  F  F  F </v>
   <v type="logical" >  F  F  F </v>
   <v type="logical" >  F  F  F </v>
   <v type="logical" >  T  T  T </v>
   <v type="logical" >  F  F  F </v>
   <v type="logical" >  F  F  F </v>
   <v type="logical" >  F  F  F </v>
   <v type="logical" >  F  F  F </v>
   <v type="logical" >  F  F  F </v>
   <v type="logical" >  T  T  T </v>
   <v type="logical" >  F  F  F </v>
   <v type="logical" >  F  F  F </v>
   <v type="logical" >  F  F  F </v>
   <v type="logical" >  F  F  F </v>
   <v type="logical" >  F  F  F </v>
   <v type="logical" >  T  T  T </v>
   <v type="logical" >  F  F  F </v>
   <v type="logical" >  F  F  F </v>
   <v type="logical" >  F  F  F </v>
   <v type="logical" >  F  F  F </v>
   <v type="logical" >  F  F  F </v>
   <v type="logical" >  T  T  T </v>
   <v type="logical" >  F  F  F </v>
   <v type="logical" >  F  F  F </v>
   <v type="logical" >  F  F  F </v>
   <v type="logical" >  F  F  F </v>
   <v type="logical" >  F  F  F </v>
   <v type="logical" >  T  T  T </v>
   <v type="logical" >  F  F  F </v>
   <v type="logical" >  F  F  F </v>
   <v type="logical" >  F  F  F </v>
   <v type="logical" >  F  F  F </v>
   <v type="logical" >  F  F  F </v>
   <v type="logical" >  T  T  T </v>
   <v type="logical" >  F  F  F </v>
   <v type="logical" >  F  F  F </v>
   <v type="logical" >  F  F  F </v>
   <v type="logical" >  F  F  F </v>
   <v type="logical" >  F  F  F </v>
   <v type="logical" >  T  T  T </v>
   <v type="logical" >  F  F  F </v>
   <v type="logical" >  F  F  F </v>
   <v type="logical" >  F  F  F </v>
   <v type="logical" >  F  F  F </v>
   <v type="logical" >  F  F  F </v>
   <v type="logical" >  T  T  T </v>
   <v type="logical" >  F  F  F </v>
   <v type="logical" >  F  F  F </v>
   <v type="logical" >  F  F  F </v>
   <v type="logical" >  F  F  F </v>
   <v type="logical" >  F  F  F </v>
   <v type="logical" >  T  T  T </v>
   <v type="logical" >  F  F  F </v>
   <v type="logical" >  T  T  T </v>
   <v type="logical" >  T  T  T </v>
   <v type="logical" >  T  T  T </v>
   <v type="logical" >  T  T  T </v>
  </varray>
  <nose>
   <v>      -3.00000000       0.00000000       0.00010000       0.00010000 </v>
  </nose>
 </structure>
</modeling>
