<?xml version="1.0" encoding="ISO-8859-1"?>
<modeling>
 <generator>
  <i name="program" type="string">vasp </i>
  <i name="version" type="string">6.1.2  </i>
  <i name="subversion" type="string">22Jul20 (build Nov  4 2022 18:23:20) complex                          parallel </i>
  <i name="platform" type="string">LinuxPGI </i>
  <i name="date" type="string">2024 01 31 </i>
  <i name="time" type="string">02:00:55 </i>
 </generator>
 <incar>
  <i type="int" name="IBRION">    -1</i>
  <i name="EDIFFG">     -0.03000000</i>
  <i type="int" name="NSW">     0</i>
  <i type="int" name="ISIF">     0</i>
  <i type="int" name="ISYM">     0</i>
  <i name="SYMPREC">      0.00000000</i>
  <i name="ENCUT">    350.00000000</i>
  <i type="string" name="LREAL"> Auto</i>
  <i type="logical" name="LWAVE"> F  </i>
  <i type="int" name="NCORE">     4</i>
  <i type="logical" name="LAECHG"> T  </i>
  <i type="string" name="GGA"> RP</i>
 </incar>
 <structure name="primitive_cell" >
  <crystal>
   <varray name="basis" >
    <v>       8.46376883       0.00000000      -0.00000000 </v>
    <v>      -4.23188442       7.32983882       0.00000000 </v>
    <v>       0.00000000       0.00000000      34.55319157 </v>
   </varray>
   <i name="volume">   2143.61301901 </i>
   <varray name="rec_basis" >
    <v>       0.11815067       0.06821432      -0.00000000 </v>
    <v>      -0.00000000       0.13642865       0.00000000 </v>
    <v>       0.00000000       0.00000000       0.02894089 </v>
   </varray>
  </crystal>
  <varray name="positions" >
   <v>       0.11111111       0.22222222       0.33333333 </v>
   <v>       0.00000000       0.00000000       0.46666667 </v>
   <v>       0.22222222       0.11111111       0.40000000 </v>
   <v>       0.11111111       0.22222222       0.53333333 </v>
   <v>       0.31860797       0.99257949       0.66620326 </v>
   <v>       0.22222222       0.11111111       0.60000000 </v>
   <v>       0.11111111       0.55555556       0.33333333 </v>
   <v>       0.00000000       0.33333333       0.46666667 </v>
   <v>       0.22222222       0.44444444       0.40000000 </v>
   <v>       0.11111111       0.55555556       0.53333333 </v>
   <v>       0.33920688       0.34668524       0.66665285 </v>
   <v>       0.22222222       0.44444444       0.60000000 </v>
   <v>       0.11111111       0.88888889       0.33333333 </v>
   <v>       0.00000000       0.66666667       0.46666667 </v>
   <v>       0.22222222       0.77777778       0.40000000 </v>
   <v>       0.11111111       0.88888889       0.53333333 </v>
   <v>       0.33929956       0.65911864       0.66627937 </v>
   <v>       0.22222222       0.77777778       0.60000000 </v>
   <v>       0.44444444       0.22222222       0.33333333 </v>
   <v>       0.33333333       0.00000000       0.46666667 </v>
   <v>       0.55555556       0.11111111       0.40000000 </v>
   <v>       0.44444444       0.22222222       0.53333333 </v>
   <v>       0.67273859       0.01289157       0.66664684 </v>
   <v>       0.55555556       0.11111111       0.60000000 </v>
   <v>       0.44444444       0.55555556       0.33333333 </v>
   <v>       0.33333333       0.33333333       0.46666667 </v>
   <v>       0.55555556       0.44444444       0.40000000 </v>
   <v>       0.44444444       0.55555556       0.53333333 </v>
   <v>       0.67205266       0.32552965       0.66639136 </v>
   <v>       0.55555556       0.44444444       0.60000000 </v>
   <v>       0.44444444       0.88888889       0.33333333 </v>
   <v>       0.33333333       0.66666667       0.46666667 </v>
   <v>       0.55555556       0.77777778       0.40000000 </v>
   <v>       0.44444444       0.88888889       0.53333333 </v>
   <v>       0.65164456       0.65880636       0.66634429 </v>
   <v>       0.55555556       0.77777778       0.60000000 </v>
   <v>       0.77777778       0.22222222       0.33333333 </v>
   <v>       0.66666667       0.00000000       0.46666667 </v>
   <v>       0.88888889       0.11111111       0.40000000 </v>
   <v>       0.77777778       0.22222222       0.53333333 </v>
   <v>       0.00568109       0.99263610       0.66652971 </v>
   <v>       0.88888889       0.11111111       0.60000000 </v>
   <v>       0.77777778       0.55555556       0.33333333 </v>
   <v>       0.66666667       0.33333333       0.46666667 </v>
   <v>       0.88888889       0.44444444       0.40000000 </v>
   <v>       0.77777778       0.55555556       0.53333333 </v>
   <v>       0.98508921       0.32559064       0.66624259 </v>
   <v>       0.88888889       0.44444444       0.60000000 </v>
   <v>       0.77777778       0.88888889       0.33333333 </v>
   <v>       0.66666667       0.66666667       0.46666667 </v>
   <v>       0.88888889       0.77777778       0.40000000 </v>
   <v>       0.77777778       0.88888889       0.53333333 </v>
   <v>       0.00623081       0.67961068       0.66654681 </v>
   <v>       0.88888889       0.77777778       0.60000000 </v>
   <v>       0.44342937       0.88808038       0.69996575 </v>
   <v>       0.11078695       0.55452628       0.70003310 </v>
   <v>       0.77666301       0.55510146       0.69999923 </v>
   <v>       0.11007204       0.22221618       0.70022316 </v>
   <v>       0.77669758       0.88722890       0.70026016 </v>
   <v>       0.44245178       0.22083017       0.70018514 </v>
  </varray>
 </structure>
 <varray name="primitive_index" >
  <v type="int" >        1 </v>
  <v type="int" >        2 </v>
  <v type="int" >        3 </v>
  <v type="int" >        4 </v>
  <v type="int" >        5 </v>
  <v type="int" >        6 </v>
  <v type="int" >        7 </v>
  <v type="int" >        8 </v>
  <v type="int" >        9 </v>
  <v type="int" >       10 </v>
  <v type="int" >       11 </v>
  <v type="int" >       12 </v>
  <v type="int" >       13 </v>
  <v type="int" >       14 </v>
  <v type="int" >       15 </v>
  <v type="int" >       16 </v>
  <v type="int" >       17 </v>
  <v type="int" >       18 </v>
  <v type="int" >       19 </v>
  <v type="int" >       20 </v>
  <v type="int" >       21 </v>
  <v type="int" >       22 </v>
  <v type="int" >       23 </v>
  <v type="int" >       24 </v>
  <v type="int" >       25 </v>
  <v type="int" >       26 </v>
  <v type="int" >       27 </v>
  <v type="int" >       28 </v>
  <v type="int" >       29 </v>
  <v type="int" >       30 </v>
  <v type="int" >       31 </v>
  <v type="int" >       32 </v>
  <v type="int" >       33 </v>
  <v type="int" >       34 </v>
  <v type="int" >       35 </v>
  <v type="int" >       36 </v>
  <v type="int" >       37 </v>
  <v type="int" >       38 </v>
  <v type="int" >       39 </v>
  <v type="int" >       40 </v>
  <v type="int" >       41 </v>
  <v type="int" >       42 </v>
  <v type="int" >       43 </v>
  <v type="int" >       44 </v>
  <v type="int" >       45 </v>
  <v type="int" >       46 </v>
  <v type="int" >       47 </v>
  <v type="int" >       48 </v>
  <v type="int" >       49 </v>
  <v type="int" >       50 </v>
  <v type="int" >       51 </v>
  <v type="int" >       52 </v>
  <v type="int" >       53 </v>
  <v type="int" >       54 </v>
  <v type="int" >       55 </v>
  <v type="int" >       56 </v>
  <v type="int" >       57 </v>
  <v type="int" >       58 </v>
  <v type="int" >       59 </v>
  <v type="int" >       60 </v>
 </varray>
 <kpoints>
  <generation param="Monkhorst-Pack">
   <v type="int" name="divisions">       5        5        1 </v>
   <v name="usershift">      0.00000000       0.00000000       0.00000000 </v>
   <v name="genvec1">      0.20000000       0.00000000       0.00000000 </v>
   <v name="genvec2">      0.00000000       0.20000000       0.00000000 </v>
   <v name="genvec3">      0.00000000       0.00000000       1.00000000 </v>
   <v name="shift">      0.00000000       0.00000000       0.00000000 </v>
  </generation>
  <varray name="kpointlist" >
   <v>       0.00000000       0.00000000       0.00000000 </v>
   <v>       0.20000000       0.00000000       0.00000000 </v>
   <v>       0.20000000      -0.20000000       0.00000000 </v>
   <v>       0.00000000      -0.20000000       0.00000000 </v>
   <v>       0.40000000       0.00000000       0.00000000 </v>
   <v>       0.40000000      -0.40000000       0.00000000 </v>
   <v>       0.00000000      -0.40000000       0.00000000 </v>
   <v>       0.20000000       0.20000000       0.00000000 </v>
   <v>       0.40000000      -0.20000000       0.00000000 </v>
   <v>       0.20000000      -0.40000000       0.00000000 </v>
   <v>       0.40000000       0.20000000       0.00000000 </v>
   <v>      -0.40000000      -0.40000000       0.00000000 </v>
   <v>       0.20000000       0.40000000       0.00000000 </v>
  </varray>
  <varray name="weights" >
   <v>       0.04000000 </v>
   <v>       0.08000000 </v>
   <v>       0.08000000 </v>
   <v>       0.08000000 </v>
   <v>       0.08000000 </v>
   <v>       0.08000000 </v>
   <v>       0.08000000 </v>
   <v>       0.08000000 </v>
   <v>       0.08000000 </v>
   <v>       0.08000000 </v>
   <v>       0.08000000 </v>
   <v>       0.08000000 </v>
   <v>       0.08000000 </v>
  </varray>
 </kpoints>
 <parameters>
  <separator name="general" >
   <i type="string" name="SYSTEM">unknown system</i>
   <i type="logical" name="LCOMPAT"> F  </i>
  </separator>
  <separator name="electronic" >
   <i type="string" name="PREC">normal</i>
   <i name="ENMAX">    350.00000000</i>
   <i name="ENAUG">    605.39200000</i>
   <i name="EDIFF">      0.00010000</i>
   <i type="int" name="IALGO">    38</i>
   <i type="int" name="IWAVPR">    10</i>
   <i type="int" name="NBANDS">   346</i>
   <i type="int" name="NBANDSLOW">    -1</i>
   <i type="int" name="NBANDSHIGH">    -1</i>
   <i name="NELECT">    576.00000000</i>
   <i type="int" name="TURBO">     0</i>
   <i type="int" name="IRESTART">     0</i>
   <i type="int" name="NREBOOT">     0</i>
   <i type="int" name="NMIN">     0</i>
   <i name="EREF">      0.00000000</i>
   <separator name="electronic smearing" >
    <i type="int" name="ISMEAR">     1</i>
    <i name="SIGMA">      0.20000000</i>
    <i name="KSPACING">      0.50000000</i>
    <i type="logical" name="KGAMMA"> T  </i>
    <i type="logical" name="KBLOWUP"> T  </i>
   </separator>
   <separator name="electronic projectors" >
    <i type="logical" name="LREAL"> T  </i>
    <v name="ROPT">     -0.00050000     -0.00050000</v>
    <i type="int" name="LMAXPAW">  -100</i>
    <i type="int" name="LMAXMIX">     2</i>
    <i type="logical" name="NLSPLINE"> F  </i>
   </separator>
   <separator name="electronic startup" >
    <i type="int" name="ISTART">     0</i>
    <i type="int" name="ICHARG">     2</i>
    <i type="int" name="INIWAV">     1</i>
   </separator>
   <separator name="electronic spin" >
    <i type="int" name="ISPIN">     1</i>
    <i type="logical" name="LNONCOLLINEAR"> F  </i>
    <v name="MAGMOM">      1.00000000      1.00000000      1.00000000      1.00000000      1.00000000      1.00000000      1.00000000      1.00000000      1.00000000      1.00000000      1.00000000      1.00000000      1.00000000      1.00000000      1.00000000      1.00000000      1.00000000      1.00000000      1.00000000      1.00000000
      1.00000000      1.00000000      1.00000000      1.00000000      1.00000000      1.00000000      1.00000000      1.00000000      1.00000000      1.00000000      1.00000000      1.00000000      1.00000000      1.00000000      1.00000000      1.00000000      1.00000000      1.00000000      1.00000000      1.00000000
      1.00000000      1.00000000      1.00000000      1.00000000      1.00000000      1.00000000      1.00000000      1.00000000      1.00000000      1.00000000      1.00000000      1.00000000      1.00000000      1.00000000      1.00000000      1.00000000      1.00000000      1.00000000      1.00000000      1.00000000
</v>
    <i name="NUPDOWN">     -1.00000000</i>
    <i type="logical" name="LSORBIT"> F  </i>
    <v name="SAXIS">      0.00000000      0.00000000      1.00000000</v>
    <i type="logical" name="LSPIRAL"> F  </i>
    <v name="QSPIRAL">      0.00000000      0.00000000      0.00000000</v>
    <i type="logical" name="LZEROZ"> F  </i>
   </separator>
   <separator name="electronic exchange-correlation" >
    <i type="logical" name="LASPH"> F  </i>
    <i type="logical" name="LMETAGGA"> F  </i>
   </separator>
   <separator name="electronic convergence" >
    <i type="int" name="NELM">    60</i>
    <i type="int" name="NELMDL">     0</i>
    <i type="int" name="NELMIN">     2</i>
    <i name="ENINI">    350.00000000</i>
    <separator name="electronic convergence detail" >
     <i type="logical" name="LDIAG"> T  </i>
     <i type="logical" name="LSUBROT"> F  </i>
     <i name="WEIMIN">      0.00000000</i>
     <i name="EBREAK">      0.00000007</i>
     <i name="DEPER">      0.30000000</i>
     <i type="int" name="NRMM">     4</i>
     <i name="TIME">      0.40000000</i>
    </separator>
   </separator>
   <separator name="electronic mixer" >
    <i name="AMIX">      0.40000000</i>
    <i name="BMIX">      1.00000000</i>
    <i name="AMIN">      0.10000000</i>
    <i name="AMIX_MAG">      1.60000000</i>
    <i name="BMIX_MAG">      1.00000000</i>
    <separator name="electronic mixer details" >
     <i type="int" name="IMIX">     4</i>
     <i type="logical" name="MIXFIRST"> F  </i>
     <i type="int" name="MAXMIX">   -45</i>
     <i name="WC">    100.00000000</i>
     <i type="int" name="INIMIX">     1</i>
     <i type="int" name="MIXPRE">     1</i>
     <i type="int" name="MREMOVE">     5</i>
    </separator>
   </separator>
   <separator name="electronic dipolcorrection" >
    <i type="logical" name="LDIPOL"> F  </i>
    <i type="logical" name="LMONO"> F  </i>
    <i type="int" name="IDIPOL">     0</i>
    <i name="EPSILON">      1.00000000</i>
    <v name="DIPOL">   -100.00000000   -100.00000000   -100.00000000</v>
    <i name="EFIELD">      0.00000000</i>
   </separator>
  </separator>
  <separator name="grids" >
   <i type="int" name="NGX">    40</i>
   <i type="int" name="NGY">    40</i>
   <i type="int" name="NGZ">   160</i>
   <i type="int" name="NGXF">    80</i>
   <i type="int" name="NGYF">    80</i>
   <i type="int" name="NGZF">   320</i>
   <i type="logical" name="ADDGRID"> F  </i>
  </separator>
  <separator name="ionic" >
   <i type="int" name="NSW">     0</i>
   <i type="int" name="IBRION">    -1</i>
   <i type="int" name="MDALGO">     0</i>
   <i type="int" name="ISIF">     0</i>
   <i name="PSTRESS">      0.00000000</i>
   <i name="EDIFFG">     -0.03000000</i>
   <i type="int" name="NFREE">     0</i>
   <i name="POTIM">      0.50000000</i>
   <i name="SMASS">     -3.00000000</i>
   <i name="SCALEE">      1.00000000</i>
  </separator>
  <separator name="ionic md" >
   <i name="TEBEG">      0.00010000</i>
   <i name="TEEND">      0.00010000</i>
   <i type="int" name="NBLOCK">     1</i>
   <i type="int" name="KBLOCK">     1</i>
   <i type="int" name="NPACO">   256</i>
   <i name="APACO">     16.00000000</i>
  </separator>
  <separator name="symmetry" >
   <i type="int" name="ISYM">     0</i>
   <i name="SYMPREC">      0.00000000</i>
  </separator>
  <separator name="dos" >
   <i type="int" name="LORBIT">     0</i>
   <v name="RWIGS">     -1.00000000     -1.00000000</v>
   <i type="int" name="NEDOS">   301</i>
   <i name="EMIN">     10.00000000</i>
   <i name="EMAX">    -10.00000000</i>
   <i name="EFERMI">      0.00000000</i>
  </separator>
  <separator name="writing" >
   <i type="int" name="NWRITE">     2</i>
   <i type="logical" name="LWAVE"> F  </i>
   <i type="logical" name="LDOWNSAMPLE"> F  </i>
   <i type="logical" name="LCHARG"> T  </i>
   <i type="logical" name="LPARD"> F  </i>
   <i type="logical" name="LVTOT"> F  </i>
   <i type="logical" name="LVHAR"> F  </i>
   <i type="logical" name="LELF"> F  </i>
   <i type="logical" name="LOPTICS"> F  </i>
   <v name="STM">      0.00000000      0.00000000      0.00000000      0.00000000      0.00000000      0.00000000      0.00000000</v>
  </separator>
  <separator name="performance" >
   <i type="int" name="NPAR">     2</i>
   <i type="int" name="NSIM">     4</i>
   <i type="int" name="NBLK">    -1</i>
   <i type="logical" name="LPLANE"> T  </i>
   <i type="logical" name="LSCALAPACK"> T  </i>
   <i type="logical" name="LSCAAWARE"> F  </i>
   <i type="logical" name="LSCALU"> F  </i>
   <i type="logical" name="LASYNC"> F  </i>
   <i type="logical" name="LORBITALREAL"> F  </i>
  </separator>
  <separator name="miscellaneous" >
   <i type="int" name="IDIOT">     3</i>
   <i type="int" name="PHON_NSTRUCT">    -1</i>
   <i type="logical" name="LMUSIC"> F  </i>
   <v name="POMASS">    195.08000000     16.00000000</v>
   <v name="DARWINR">      0.00000000      0.00000000</v>
   <v name="DARWINV">      1.00000000      1.00000000</v>
   <i type="logical" name="LCORR"> T  </i>
  </separator>
  <i type="logical" name="GGA_COMPAT"> T  </i>
  <i type="logical" name="LBERRY"> F  </i>
  <i type="int" name="ICORELEVEL">     0</i>
  <i type="logical" name="LDAU"> F  </i>
  <i type="int" name="I_CONSTRAINED_M">     0</i>
  <separator name="electronic exchange-correlation" >
   <i type="string" name="GGA">RP</i>
   <i type="int" name="VOSKOWN">     0</i>
   <i type="logical" name="LHFCALC"> F  </i>
   <i type="string" name="PRECFOCK"></i>
   <i type="logical" name="LSYMGRAD"> F  </i>
   <i type="logical" name="LHFONE"> F  </i>
   <i type="logical" name="LRHFCALC"> F  </i>
   <i type="logical" name="LTHOMAS"> F  </i>
   <i type="logical" name="LMODELHF"> F  </i>
   <i type="logical" name="LFOCKACE"> F  </i>
   <i name="ENCUT4O">     -1.00000000</i>
   <i type="int" name="EXXOEP">     0</i>
   <i type="int" name="FOURORBIT">     0</i>
   <i name="AEXX">      0.00000000</i>
   <i name="HFALPHA">      0.00000000</i>
   <i name="MCALPHA">      0.00000000</i>
   <i name="ALDAX">      1.00000000</i>
   <i name="AGGAX">      1.00000000</i>
   <i name="ALDAC">      1.00000000</i>
   <i name="AGGAC">      1.00000000</i>
   <i type="int" name="NKREDX">     1</i>
   <i type="int" name="NKREDY">     1</i>
   <i type="int" name="NKREDZ">     1</i>
   <i type="logical" name="SHIFTRED"> F  </i>
   <i type="logical" name="ODDONLY"> F  </i>
   <i type="logical" name="EVENONLY"> F  </i>
   <i type="int" name="LMAXFOCK">     0</i>
   <i type="int" name="NMAXFOCKAE">     0</i>
   <i type="logical" name="LFOCKAEDFT"> F  </i>
   <i name="HFSCREEN">      0.00000000</i>
   <i name="HFSCREENC">      0.00000000</i>
   <i type="int" name="NBANDSGWLOW">     0</i>
  </separator>
  <separator name="vdW DFT" >
   <i type="logical" name="LUSE_VDW"> F  </i>
   <i name="Zab_VDW">     -0.84910000</i>
   <i name="PARAM1">      0.12340000</i>
   <i name="PARAM2">      1.00000000</i>
   <i name="PARAM3">      0.00000000</i>
  </separator>
  <separator name="model GW" >
   <i type="int" name="MODEL_GW">     0</i>
   <i name="MODEL_EPS0">     21.43613019</i>
   <i name="MODEL_ALPHA">      1.00000000</i>
  </separator>
  <separator name="linear response parameters" >
   <i type="logical" name="LEPSILON"> F  </i>
   <i type="logical" name="LRPA"> F  </i>
   <i type="logical" name="LNABLA"> F  </i>
   <i type="logical" name="LVEL"> F  </i>
   <i type="int" name="KINTER">     0</i>
   <i name="CSHIFT">      0.10000000</i>
   <i name="OMEGAMAX">     -1.00000000</i>
   <i name="DEG_THRESHOLD">      0.00200000</i>
   <i name="RTIME">     -0.10000000</i>
   <i name="WPLASMAI">      0.00000000</i>
   <v name="DFIELD">      0.00000000      0.00000000      0.00000000</v>
   <v name="WPLASMA">      0.00000000      0.00000000      0.00000000      0.00000000      0.00000000      0.00000000      0.00000000      0.00000000      0.00000000</v>
  </separator>
  <separator name="orbital magnetization" >
   <i type="logical" name="NUCIND"> F  </i>
   <v name="MAGPOS">      0.00000000      0.00000000      0.00000000</v>
   <i type="logical" name="LNICSALL"> T  </i>
   <i type="logical" name="ORBITALMAG"> F  </i>
   <i type="logical" name="LMAGBLOCH"> F  </i>
   <i type="logical" name="LCHIMAG"> F  </i>
   <i type="logical" name="LGAUGE"> T  </i>
   <i type="int" name="MAGATOM">     0</i>
   <v name="MAGDIPOL">      0.00000000      0.00000000      0.00000000</v>
   <v name="AVECCONST">      0.00000000      0.00000000      0.00000000</v>
  </separator>
  <separator name="response functions" >
   <i type="logical" name="LFINITE_TEMPERATURE"> F  </i>
   <i type="logical" name="LADDER"> F  </i>
   <i type="logical" name="LRPAFORCE"> F  </i>
   <i type="logical" name="LFXC"> F  </i>
   <i type="logical" name="LHARTREE"> T  </i>
   <i type="int" name="IBSE">     0</i>
   <v type="int" name="KPOINT">    -1     0     0     0</v>
   <i type="logical" name="LTCTC"> F  </i>
   <i type="logical" name="LTCTE"> F  </i>
   <i type="logical" name="LTETE"> F  </i>
   <i type="logical" name="LTRIPLET"> F  </i>
   <i type="logical" name="LFXCEPS"> F  </i>
   <i type="logical" name="LFXHEG"> F  </i>
   <i type="int" name="NATURALO">     2</i>
   <i type="logical" name="LHOLEGF"> F  </i>
   <i type="logical" name="L2ORDER"> F  </i>
   <i type="logical" name="LDMP1"> F  </i>
   <i type="logical" name="LMP2LT"> F  </i>
   <i type="logical" name="LSMP2LT"> F  </i>
   <i type="logical" name="LGWLF"> F  </i>
   <i name="ENCUTGW">     -2.00000000</i>
   <i name="ENCUTGWSOFT">     -2.00000000</i>
   <i name="ENCUTLF">     -1.00000000</i>
   <i type="logical" name="LESF_SPLINES"> F  </i>
   <i type="int" name="LMAXMP2">    -1</i>
   <i name="SCISSOR">      0.00000000</i>
   <i type="int" name="NOMEGA">     0</i>
   <i type="int" name="NOMEGAR">     0</i>
   <i type="int" name="NBANDSGW">    -1</i>
   <i type="int" name="NBANDSO">    -1</i>
   <i type="int" name="NBANDSV">    -1</i>
   <i type="int" name="NELM">     1</i>
   <i type="int" name="NELMHF">     1</i>
   <i type="int" name="DIM">     3</i>
   <i type="int" name="IESPILON">     4</i>
   <i type="int" name="ANTIRES">     0</i>
   <i name="OMEGAMAX">    -30.00000000</i>
   <i name="OMEGAMIN">    -30.00000000</i>
   <i name="OMEGATL">   -200.00000000</i>
   <i type="int" name="OMEGAGRID">     0</i>
   <i name="CSHIFT">     -0.10000000</i>
   <i type="logical" name="LSELFENERGY"> F  </i>
   <i type="logical" name="LSPECTRAL"> F  </i>
   <i type="logical" name="LSPECTRALGW"> F  </i>
   <i type="logical" name="LSINGLES"> F  </i>
   <i type="logical" name="LFERMIGW"> F  </i>
   <i type="logical" name="ODDONLYGW"> F  </i>
   <i type="logical" name="EVENONLYGW"> F  </i>
   <i type="int" name="NKREDLFX">     1</i>
   <i type="int" name="NKREDLFY">     1</i>
   <i type="int" name="NKREDLFZ">     1</i>
   <i type="int" name="MAXMEM">  2800</i>
   <i type="int" name="TELESCOPE">     0</i>
   <i type="int" name="NTAUPAR">    -1</i>
   <i type="int" name="NOMEGAPAR">    -1</i>
   <i name="LAMBDA">      1.00000000</i>
  </separator>
  <separator name="External order field" >
   <i name="OFIELD_KAPPA">      0.00000000</i>
   <v name="OFIELD_K">      0.00000000      0.00000000      0.00000000</v>
   <i name="OFIELD_Q6_NEAR">      0.00000000</i>
   <i name="OFIELD_Q6_FAR">      0.00000000</i>
   <i name="OFIELD_A">      0.00000000</i>
  </separator>
 </parameters>
 <atominfo>
  <atoms>      60 </atoms>
  <types>       2 </types>
  <array name="atoms" >
   <dimension dim="1">ion</dimension>
   <field type="string">element</field>
   <field type="int">atomtype</field>
   <set>
    <rc><c>Pt</c><c>   1</c></rc>
    <rc><c>Pt</c><c>   1</c></rc>
    <rc><c>Pt</c><c>   1</c></rc>
    <rc><c>Pt</c><c>   1</c></rc>
    <rc><c>Pt</c><c>   1</c></rc>
    <rc><c>Pt</c><c>   1</c></rc>
    <rc><c>Pt</c><c>   1</c></rc>
    <rc><c>Pt</c><c>   1</c></rc>
    <rc><c>Pt</c><c>   1</c></rc>
    <rc><c>Pt</c><c>   1</c></rc>
    <rc><c>Pt</c><c>   1</c></rc>
    <rc><c>Pt</c><c>   1</c></rc>
    <rc><c>Pt</c><c>   1</c></rc>
    <rc><c>Pt</c><c>   1</c></rc>
    <rc><c>Pt</c><c>   1</c></rc>
    <rc><c>Pt</c><c>   1</c></rc>
    <rc><c>Pt</c><c>   1</c></rc>
    <rc><c>Pt</c><c>   1</c></rc>
    <rc><c>Pt</c><c>   1</c></rc>
    <rc><c>Pt</c><c>   1</c></rc>
    <rc><c>Pt</c><c>   1</c></rc>
    <rc><c>Pt</c><c>   1</c></rc>
    <rc><c>Pt</c><c>   1</c></rc>
    <rc><c>Pt</c><c>   1</c></rc>
    <rc><c>Pt</c><c>   1</c></rc>
    <rc><c>Pt</c><c>   1</c></rc>
    <rc><c>Pt</c><c>   1</c></rc>
    <rc><c>Pt</c><c>   1</c></rc>
    <rc><c>Pt</c><c>   1</c></rc>
    <rc><c>Pt</c><c>   1</c></rc>
    <rc><c>Pt</c><c>   1</c></rc>
    <rc><c>Pt</c><c>   1</c></rc>
    <rc><c>Pt</c><c>   1</c></rc>
    <rc><c>Pt</c><c>   1</c></rc>
    <rc><c>Pt</c><c>   1</c></rc>
    <rc><c>Pt</c><c>   1</c></rc>
    <rc><c>Pt</c><c>   1</c></rc>
    <rc><c>Pt</c><c>   1</c></rc>
    <rc><c>Pt</c><c>   1</c></rc>
    <rc><c>Pt</c><c>   1</c></rc>
    <rc><c>Pt</c><c>   1</c></rc>
    <rc><c>Pt</c><c>   1</c></rc>
    <rc><c>Pt</c><c>   1</c></rc>
    <rc><c>Pt</c><c>   1</c></rc>
    <rc><c>Pt</c><c>   1</c></rc>
    <rc><c>Pt</c><c>   1</c></rc>
    <rc><c>Pt</c><c>   1</c></rc>
    <rc><c>Pt</c><c>   1</c></rc>
    <rc><c>Pt</c><c>   1</c></rc>
    <rc><c>Pt</c><c>   1</c></rc>
    <rc><c>Pt</c><c>   1</c></rc>
    <rc><c>Pt</c><c>   1</c></rc>
    <rc><c>Pt</c><c>   1</c></rc>
    <rc><c>Pt</c><c>   1</c></rc>
    <rc><c>O </c><c>   2</c></rc>
    <rc><c>O </c><c>   2</c></rc>
    <rc><c>O </c><c>   2</c></rc>
    <rc><c>O </c><c>   2</c></rc>
    <rc><c>O </c><c>   2</c></rc>
    <rc><c>O </c><c>   2</c></rc>
   </set>
  </array>
  <array name="atomtypes" >
   <dimension dim="1">type</dimension>
   <field type="int">atomspertype</field>
   <field type="string">element</field>
   <field>mass</field>
   <field>valence</field>
   <field type="string">pseudopotential</field>
   <set>
    <rc><c>  54</c><c>Pt</c><c>    195.08000000</c><c>     10.00000000</c><c>  PAW_PBE Pt 04Feb2005                  </c></rc>
    <rc><c>   6</c><c>O </c><c>     16.00000000</c><c>      6.00000000</c><c>  PAW_PBE O 08Apr2002                   </c></rc>
   </set>
  </array>
 </atominfo>
 <structure name="initialpos" >
  <crystal>
   <varray name="basis" >
    <v>       8.46376883       0.00000000      -0.00000000 </v>
    <v>      -4.23188442       7.32983882       0.00000000 </v>
    <v>       0.00000000       0.00000000      34.55319157 </v>
   </varray>
   <i name="volume">   2143.61301901 </i>
   <varray name="rec_basis" >
    <v>       0.11815067       0.06821432      -0.00000000 </v>
    <v>      -0.00000000       0.13642865       0.00000000 </v>
    <v>       0.00000000       0.00000000       0.02894089 </v>
   </varray>
  </crystal>
  <varray name="positions" >
   <v>       0.11111111       0.22222222       0.33333333 </v>
   <v>       0.00000000       0.00000000       0.46666667 </v>
   <v>       0.22222222       0.11111111       0.40000000 </v>
   <v>       0.11111111       0.22222222       0.53333333 </v>
   <v>       0.31860797       0.99257949       0.66620326 </v>
   <v>       0.22222222       0.11111111       0.60000000 </v>
   <v>       0.11111111       0.55555556       0.33333333 </v>
   <v>       0.00000000       0.33333333       0.46666667 </v>
   <v>       0.22222222       0.44444444       0.40000000 </v>
   <v>       0.11111111       0.55555556       0.53333333 </v>
   <v>       0.33920688       0.34668524       0.66665285 </v>
   <v>       0.22222222       0.44444444       0.60000000 </v>
   <v>       0.11111111       0.88888889       0.33333333 </v>
   <v>       0.00000000       0.66666667       0.46666667 </v>
   <v>       0.22222222       0.77777778       0.40000000 </v>
   <v>       0.11111111       0.88888889       0.53333333 </v>
   <v>       0.33929956       0.65911864       0.66627937 </v>
   <v>       0.22222222       0.77777778       0.60000000 </v>
   <v>       0.44444444       0.22222222       0.33333333 </v>
   <v>       0.33333333       0.00000000       0.46666667 </v>
   <v>       0.55555556       0.11111111       0.40000000 </v>
   <v>       0.44444444       0.22222222       0.53333333 </v>
   <v>       0.67273859       0.01289157       0.66664684 </v>
   <v>       0.55555556       0.11111111       0.60000000 </v>
   <v>       0.44444444       0.55555556       0.33333333 </v>
   <v>       0.33333333       0.33333333       0.46666667 </v>
   <v>       0.55555556       0.44444444       0.40000000 </v>
   <v>       0.44444444       0.55555556       0.53333333 </v>
   <v>       0.67205266       0.32552965       0.66639136 </v>
   <v>       0.55555556       0.44444444       0.60000000 </v>
   <v>       0.44444444       0.88888889       0.33333333 </v>
   <v>       0.33333333       0.66666667       0.46666667 </v>
   <v>       0.55555556       0.77777778       0.40000000 </v>
   <v>       0.44444444       0.88888889       0.53333333 </v>
   <v>       0.65164456       0.65880636       0.66634429 </v>
   <v>       0.55555556       0.77777778       0.60000000 </v>
   <v>       0.77777778       0.22222222       0.33333333 </v>
   <v>       0.66666667       0.00000000       0.46666667 </v>
   <v>       0.88888889       0.11111111       0.40000000 </v>
   <v>       0.77777778       0.22222222       0.53333333 </v>
   <v>       0.00568109       0.99263610       0.66652971 </v>
   <v>       0.88888889       0.11111111       0.60000000 </v>
   <v>       0.77777778       0.55555556       0.33333333 </v>
   <v>       0.66666667       0.33333333       0.46666667 </v>
   <v>       0.88888889       0.44444444       0.40000000 </v>
   <v>       0.77777778       0.55555556       0.53333333 </v>
   <v>       0.98508921       0.32559064       0.66624259 </v>
   <v>       0.88888889       0.44444444       0.60000000 </v>
   <v>       0.77777778       0.88888889       0.33333333 </v>
   <v>       0.66666667       0.66666667       0.46666667 </v>
   <v>       0.88888889       0.77777778       0.40000000 </v>
   <v>       0.77777778       0.88888889       0.53333333 </v>
   <v>       0.00623081       0.67961068       0.66654681 </v>
   <v>       0.88888889       0.77777778       0.60000000 </v>
   <v>       0.44342937       0.88808038       0.69996575 </v>
   <v>       0.11078695       0.55452628       0.70003310 </v>
   <v>       0.77666301       0.55510146       0.69999923 </v>
   <v>       0.11007204       0.22221618       0.70022316 </v>
   <v>       0.77669758       0.88722890       0.70026016 </v>
   <v>       0.44245178       0.22083017       0.70018514 </v>
  </varray>
  <varray name="selective"  type="logical" >
   <v type="logical" >  F  F  F </v>
   <v type="logical" >  F  F  F </v>
   <v type="logical" >  F  F  F </v>
   <v type="logical" >  F  F  F </v>
   <v type="logical" >  T  T  T </v>
   <v type="logical" >  F  F  F </v>
   <v type="logical" >  F  F  F </v>
   <v type="logical" >  F  F  F </v>
   <v type="logical" >  F  F  F </v>
   <v type="logical" >  F  F  F </v>
   <v type="logical" >  T  T  T </v>
   <v type="logical" >  F  F  F </v>
   <v type="logical" >  F  F  F </v>
   <v type="logical" >  F  F  F </v>
   <v type="logical" >  F  F  F </v>
   <v type="logical" >  F  F  F </v>
   <v type="logical" >  T  T  T </v>
   <v type="logical" >  F  F  F </v>
   <v type="logical" >  F  F  F </v>
   <v type="logical" >  F  F  F </v>
   <v type="logical" >  F  F  F </v>
   <v type="logical" >  F  F  F </v>
   <v type="logical" >  T  T  T </v>
   <v type="logical" >  F  F  F </v>
   <v type="logical" >  F  F  F </v>
   <v type="logical" >  F  F  F </v>
   <v type="logical" >  F  F  F </v>
   <v type="logical" >  F  F  F </v>
   <v type="logical" >  T  T  T </v>
   <v type="logical" >  F  F  F </v>
   <v type="logical" >  F  F  F </v>
   <v type="logical" >  F  F  F </v>
   <v type="logical" >  F  F  F </v>
   <v type="logical" >  F  F  F </v>
   <v type="logical" >  T  T  T </v>
   <v type="logical" >  F  F  F </v>
   <v type="logical" >  F  F  F </v>
   <v type="logical" >  F  F  F </v>
   <v type="logical" >  F  F  F </v>
   <v type="logical" >  F  F  F </v>
   <v type="logical" >  T  T  T </v>
   <v type="logical" >  F  F  F </v>
   <v type="logical" >  F  F  F </v>
   <v type="logical" >  F  F  F </v>
   <v type="logical" >  F  F  F </v>
   <v type="logical" >  F  F  F </v>
   <v type="logical" >  T  T  T </v>
   <v type="logical" >  F  F  F </v>
   <v type="logical" >  F  F  F </v>
   <v type="logical" >  F  F  F </v>
   <v type="logical" >  F  F  F </v>
   <v type="logical" >  F  F  F </v>
   <v type="logical" >  T  T  T </v>
   <v type="logical" >  F  F  F </v>
   <v type="logical" >  T  T  T </v>
   <v type="logical" >  T  T  T </v>
   <v type="logical" >  T  T  T </v>
   <v type="logical" >  T  T  T </v>
   <v type="logical" >  T  T  T </v>
   <v type="logical" >  T  T  T </v>
  </varray>
  <nose>
   <v>      -3.00000000       0.00000000       0.00010000       0.00010000 </v>
  </nose>
 </structure>
 <calculation>
  <scstep>
   <time name="dav">   57.66   57.70</time>
   <time name="total">   57.88   57.93</time>
   <energy>
    <i name="alphaZ">   1416.64100586 </i>
    <i name="ewald"> 427056.24413370 </i>
    <i name="hartreedc">-471424.81712260 </i>
    <i name="XCdc">    336.60756561 </i>
    <i name="pawpsdc">  39703.52214055 </i>
    <i name="pawaedc"> -38133.32542588 </i>
    <i name="eentropy">      0.00213912 </i>
    <i name="bandstr">   2634.41328732 </i>
    <i name="atom">  41920.38379340 </i>
    <i name="e_fr_energy">   3509.67151707 </i>
    <i name="e_wo_entrp">   3509.66937795 </i>
    <i name="e_0_energy">   3509.67080403 </i>
   </energy>
  </scstep>
  <scstep>
   <time name="dav">   64.67   64.73</time>
   <time name="total">   64.68   64.75</time>
   <energy>
    <i name="e_fr_energy">    -55.27672620 </i>
    <i name="e_wo_entrp">    -55.28580893 </i>
    <i name="e_0_energy">    -55.27975377 </i>
   </energy>
  </scstep>
  <scstep>
   <time name="dav">   63.53   63.58</time>
   <time name="total">   63.54   63.59</time>
   <energy>
    <i name="e_fr_energy">   -331.83089815 </i>
    <i name="e_wo_entrp">   -331.74390010 </i>
    <i name="e_0_energy">   -331.80189880 </i>
   </energy>
  </scstep>
  <scstep>
   <time name="dav">   68.50   68.56</time>
   <time name="total">   68.51   68.56</time>
   <energy>
    <i name="e_fr_energy">   -344.68969946 </i>
    <i name="e_wo_entrp">   -344.60777402 </i>
    <i name="e_0_energy">   -344.66239098 </i>
   </energy>
  </scstep>
  <scstep>
   <time name="dav">   67.53   67.59</time>
   <time name="total">   70.97   71.03</time>
   <energy>
    <i name="e_fr_energy">   -345.02105946 </i>
    <i name="e_wo_entrp">   -344.93944419 </i>
    <i name="e_0_energy">   -344.99385437 </i>
   </energy>
  </scstep>
  <scstep>
   <time name="dav">   66.25   66.30</time>
   <time name="total">   69.83   69.89</time>
   <energy>
    <i name="e_fr_energy">   -474.46137281 </i>
    <i name="e_wo_entrp">   -474.44398084 </i>
    <i name="e_0_energy">   -474.45557548 </i>
   </energy>
  </scstep>
  <scstep>
   <time name="dav">   63.91   63.96</time>
   <time name="total">   67.55   67.60</time>
   <energy>
    <i name="e_fr_energy">   -396.86324052 </i>
    <i name="e_wo_entrp">   -396.85443364 </i>
    <i name="e_0_energy">   -396.86030489 </i>
   </energy>
  </scstep>
  <scstep>
   <time name="dav">   64.23   64.29</time>
   <time name="total">   67.77   67.83</time>
   <energy>
    <i name="e_fr_energy">   -427.80221269 </i>
    <i name="e_wo_entrp">   -427.76471335 </i>
    <i name="e_0_energy">   -427.78971291 </i>
   </energy>
  </scstep>
  <scstep>
   <time name="dav">   64.05   64.10</time>
   <time name="total">   67.53   67.59</time>
   <energy>
    <i name="e_fr_energy">   -343.85207400 </i>
    <i name="e_wo_entrp">   -343.77380314 </i>
    <i name="e_0_energy">   -343.82598371 </i>
   </energy>
  </scstep>
  <scstep>
   <time name="dav">   63.29   63.34</time>
   <time name="total">   66.90   66.96</time>
   <energy>
    <i name="e_fr_energy">   -347.17696781 </i>
    <i name="e_wo_entrp">   -347.24594673 </i>
    <i name="e_0_energy">   -347.19996078 </i>
   </energy>
  </scstep>
  <scstep>
   <time name="dav">   63.44   63.49</time>
   <time name="total">   67.06   67.11</time>
   <energy>
    <i name="e_fr_energy">   -324.78229542 </i>
    <i name="e_wo_entrp">   -324.78374584 </i>
    <i name="e_0_energy">   -324.78277890 </i>
   </energy>
  </scstep>
  <scstep>
   <time name="dav">   61.42   61.47</time>
   <time name="total">   64.96   65.02</time>
   <energy>
    <i name="e_fr_energy">   -319.78743905 </i>
    <i name="e_wo_entrp">   -319.61215491 </i>
    <i name="e_0_energy">   -319.72901101 </i>
   </energy>
  </scstep>
  <scstep>
   <time name="dav">   61.93   61.98</time>
   <time name="total">   65.53   65.58</time>
   <energy>
    <i name="e_fr_energy">   -322.26992205 </i>
    <i name="e_wo_entrp">   -322.28872340 </i>
    <i name="e_0_energy">   -322.27618917 </i>
   </energy>
  </scstep>
  <scstep>
   <time name="dav">   60.81   60.86</time>
   <time name="total">   64.33   64.38</time>
   <energy>
    <i name="e_fr_energy">   -323.88060145 </i>
    <i name="e_wo_entrp">   -323.93200775 </i>
    <i name="e_0_energy">   -323.89773688 </i>
   </energy>
  </scstep>
  <scstep>
   <time name="dav">   60.26   60.31</time>
   <time name="total">   63.82   63.87</time>
   <energy>
    <i name="e_fr_energy">   -322.69184630 </i>
    <i name="e_wo_entrp">   -322.72627454 </i>
    <i name="e_0_energy">   -322.70332238 </i>
   </energy>
  </scstep>
  <scstep>
   <time name="dav">   62.73   62.78</time>
   <time name="total">   66.50   66.56</time>
   <energy>
    <i name="e_fr_energy">   -318.06319319 </i>
    <i name="e_wo_entrp">   -318.02888958 </i>
    <i name="e_0_energy">   -318.05175865 </i>
   </energy>
  </scstep>
  <scstep>
   <time name="dav">   60.77   60.82</time>
   <time name="total">   64.39   64.44</time>
   <energy>
    <i name="e_fr_energy">   -319.24775077 </i>
    <i name="e_wo_entrp">   -319.24034607 </i>
    <i name="e_0_energy">   -319.24528253 </i>
   </energy>
  </scstep>
  <scstep>
   <time name="dav">   60.68   60.73</time>
   <time name="total">   64.27   64.32</time>
   <energy>
    <i name="e_fr_energy">   -316.77432727 </i>
    <i name="e_wo_entrp">   -316.67004584 </i>
    <i name="e_0_energy">   -316.73956679 </i>
   </energy>
  </scstep>
  <scstep>
   <time name="dav">   63.67   63.72</time>
   <time name="total">   67.34   67.39</time>
   <energy>
    <i name="e_fr_energy">   -316.73106571 </i>
    <i name="e_wo_entrp">   -316.60698415 </i>
    <i name="e_0_energy">   -316.68970519 </i>
   </energy>
  </scstep>
  <scstep>
   <time name="dav">   60.14   60.19</time>
   <time name="total">   63.69   63.74</time>
   <energy>
    <i name="e_fr_energy">   -316.66164130 </i>
    <i name="e_wo_entrp">   -316.53955818 </i>
    <i name="e_0_energy">   -316.62094693 </i>
   </energy>
  </scstep>
  <scstep>
   <time name="dav">   59.73   59.77</time>
   <time name="total">   63.41   63.47</time>
   <energy>
    <i name="e_fr_energy">   -316.64098213 </i>
    <i name="e_wo_entrp">   -316.51354024 </i>
    <i name="e_0_energy">   -316.59850150 </i>
   </energy>
  </scstep>
  <scstep>
   <time name="dav">   60.67   60.72</time>
   <time name="total">   64.20   64.25</time>
   <energy>
    <i name="e_fr_energy">   -316.64494467 </i>
    <i name="e_wo_entrp">   -316.51396166 </i>
    <i name="e_0_energy">   -316.60128367 </i>
   </energy>
  </scstep>
  <scstep>
   <time name="dav">   61.07   61.12</time>
   <time name="total">   64.83   64.88</time>
   <energy>
    <i name="e_fr_energy">   -316.61097949 </i>
    <i name="e_wo_entrp">   -316.49034754 </i>
    <i name="e_0_energy">   -316.57076884 </i>
   </energy>
  </scstep>
  <scstep>
   <time name="dav">   60.78   60.83</time>
   <time name="total">   64.50   64.55</time>
   <energy>
    <i name="e_fr_energy">   -316.61212339 </i>
    <i name="e_wo_entrp">   -316.49440240 </i>
    <i name="e_0_energy">   -316.57288306 </i>
   </energy>
  </scstep>
  <scstep>
   <time name="dav">   59.90   59.95</time>
   <time name="total">   63.49   63.54</time>
   <energy>
    <i name="e_fr_energy">   -316.60582618 </i>
    <i name="e_wo_entrp">   -316.48696378 </i>
    <i name="e_0_energy">   -316.56620538 </i>
   </energy>
  </scstep>
  <scstep>
   <time name="dav">   60.54   60.58</time>
   <time name="total">   64.16   64.21</time>
   <energy>
    <i name="e_fr_energy">   -316.59889205 </i>
    <i name="e_wo_entrp">   -316.47900260 </i>
    <i name="e_0_energy">   -316.55892890 </i>
   </energy>
  </scstep>
  <scstep>
   <time name="dav">   59.95   60.00</time>
   <time name="total">   63.59   63.64</time>
   <energy>
    <i name="e_fr_energy">   -316.59907541 </i>
    <i name="e_wo_entrp">   -316.47966865 </i>
    <i name="e_0_energy">   -316.55927315 </i>
   </energy>
  </scstep>
  <scstep>
   <time name="dav">   58.59   58.64</time>
   <time name="total">   62.24   62.29</time>
   <energy>
    <i name="e_fr_energy">   -316.59695153 </i>
    <i name="e_wo_entrp">   -316.47640524 </i>
    <i name="e_0_energy">   -316.55676943 </i>
   </energy>
  </scstep>
  <scstep>
   <time name="dav">   58.73   58.77</time>
   <time name="total">   62.32   62.37</time>
   <energy>
    <i name="e_fr_energy">   -316.59578715 </i>
    <i name="e_wo_entrp">   -316.47462033 </i>
    <i name="e_0_energy">   -316.55539821 </i>
   </energy>
  </scstep>
  <scstep>
   <time name="dav">   38.11   38.14</time>
   <time name="total">   38.31   38.34</time>
   <energy>
    <i name="alphaZ">   1416.64100586 </i>
    <i name="ewald"> 427056.24413370 </i>
    <i name="hartreedc">-470816.93057147 </i>
    <i name="XCdc">    323.15499954 </i>
    <i name="pawpsdc">  51809.14763285 </i>
    <i name="pawaedc"> -50390.64896545 </i>
    <i name="eentropy">     -0.12119585 </i>
    <i name="bandstr">  -1634.46662728 </i>
    <i name="atom">  41920.38379340 </i>
    <i name="e_fr_energy">   -316.59579470 </i>
    <i name="e_wo_entrp">   -316.47459885 </i>
    <i name="e_0_energy">   -316.55539608 </i>
   </energy>
  </scstep>
  <structure>
   <crystal>
    <varray name="basis" >
     <v>       8.46376883       0.00000000      -0.00000000 </v>
     <v>      -4.23188442       7.32983882       0.00000000 </v>
     <v>       0.00000000       0.00000000      34.55319157 </v>
    </varray>
    <i name="volume">   2143.61301901 </i>
    <varray name="rec_basis" >
     <v>       0.11815067       0.06821432      -0.00000000 </v>
     <v>      -0.00000000       0.13642865       0.00000000 </v>
     <v>       0.00000000       0.00000000       0.02894089 </v>
    </varray>
   </crystal>
   <varray name="positions" >
    <v>       0.11111111       0.22222222       0.33333333 </v>
    <v>       0.00000000       0.00000000       0.46666667 </v>
    <v>       0.22222222       0.11111111       0.40000000 </v>
    <v>       0.11111111       0.22222222       0.53333333 </v>
    <v>       0.31860797       0.99257949       0.66620326 </v>
    <v>       0.22222222       0.11111111       0.60000000 </v>
    <v>       0.11111111       0.55555556       0.33333333 </v>
    <v>       0.00000000       0.33333333       0.46666667 </v>
    <v>       0.22222222       0.44444444       0.40000000 </v>
    <v>       0.11111111       0.55555556       0.53333333 </v>
    <v>       0.33920688       0.34668524       0.66665285 </v>
    <v>       0.22222222       0.44444444       0.60000000 </v>
    <v>       0.11111111       0.88888889       0.33333333 </v>
    <v>       0.00000000       0.66666667       0.46666667 </v>
    <v>       0.22222222       0.77777778       0.40000000 </v>
    <v>       0.11111111       0.88888889       0.53333333 </v>
    <v>       0.33929956       0.65911864       0.66627937 </v>
    <v>       0.22222222       0.77777778       0.60000000 </v>
    <v>       0.44444444       0.22222222       0.33333333 </v>
    <v>       0.33333333       0.00000000       0.46666667 </v>
    <v>       0.55555556       0.11111111       0.40000000 </v>
    <v>       0.44444444       0.22222222       0.53333333 </v>
    <v>       0.67273859       0.01289157       0.66664684 </v>
    <v>       0.55555556       0.11111111       0.60000000 </v>
    <v>       0.44444444       0.55555556       0.33333333 </v>
    <v>       0.33333333       0.33333333       0.46666667 </v>
    <v>       0.55555556       0.44444444       0.40000000 </v>
    <v>       0.44444444       0.55555556       0.53333333 </v>
    <v>       0.67205266       0.32552965       0.66639136 </v>
    <v>       0.55555556       0.44444444       0.60000000 </v>
    <v>       0.44444444       0.88888889       0.33333333 </v>
    <v>       0.33333333       0.66666667       0.46666667 </v>
    <v>       0.55555556       0.77777778       0.40000000 </v>
    <v>       0.44444444       0.88888889       0.53333333 </v>
    <v>       0.65164456       0.65880636       0.66634429 </v>
    <v>       0.55555556       0.77777778       0.60000000 </v>
    <v>       0.77777778       0.22222222       0.33333333 </v>
    <v>       0.66666667       0.00000000       0.46666667 </v>
    <v>       0.88888889       0.11111111       0.40000000 </v>
    <v>       0.77777778       0.22222222       0.53333333 </v>
    <v>       0.00568109       0.99263610       0.66652971 </v>
    <v>       0.88888889       0.11111111       0.60000000 </v>
    <v>       0.77777778       0.55555556       0.33333333 </v>
    <v>       0.66666667       0.33333333       0.46666667 </v>
    <v>       0.88888889       0.44444444       0.40000000 </v>
    <v>       0.77777778       0.55555556       0.53333333 </v>
    <v>       0.98508921       0.32559064       0.66624259 </v>
    <v>       0.88888889       0.44444444       0.60000000 </v>
    <v>       0.77777778       0.88888889       0.33333333 </v>
    <v>       0.66666667       0.66666667       0.46666667 </v>
    <v>       0.88888889       0.77777778       0.40000000 </v>
    <v>       0.77777778       0.88888889       0.53333333 </v>
    <v>       0.00623081       0.67961068       0.66654681 </v>
    <v>       0.88888889       0.77777778       0.60000000 </v>
    <v>       0.44342937       0.88808038       0.69996575 </v>
    <v>       0.11078695       0.55452628       0.70003310 </v>
    <v>       0.77666301       0.55510146       0.69999923 </v>
    <v>       0.11007204       0.22221618       0.70022316 </v>
    <v>       0.77669758       0.88722890       0.70026016 </v>
    <v>       0.44245178       0.22083017       0.70018514 </v>
   </varray>
  </structure>
  <varray name="forces" >
   <v>       0.00029385       0.00170577      -0.13608601 </v>
   <v>       0.03956753      -0.02292690      -0.05348884 </v>
   <v>       0.00302668      -0.02715761       0.19554342 </v>
   <v>       0.00289093       0.00268092       0.00346357 </v>
   <v>       0.05799097       0.02969662      -0.02679828 </v>
   <v>      -0.02859574      -0.05471468       0.09227513 </v>
   <v>      -0.00017233      -0.00116172      -0.13827655 </v>
   <v>      -0.03867599      -0.02400025      -0.06419442 </v>
   <v>       0.02548074       0.01887659       0.19565198 </v>
   <v>      -0.00137030       0.00017867       0.00149822 </v>
   <v>      -0.00514942      -0.06726831      -0.09714482 </v>
   <v>       0.05298105       0.01876446       0.07380845 </v>
   <v>       0.00120267       0.00007004      -0.21539899 </v>
   <v>      -0.00031288       0.04538946      -0.05997857 </v>
   <v>      -0.02072867       0.01203795       0.19571378 </v>
   <v>       0.00236981      -0.00071916      -0.15939703 </v>
   <v>      -0.03833693       0.02670084      -0.07433064 </v>
   <v>      -0.05980628       0.01662672       0.06840226 </v>
   <v>      -0.00297077      -0.00155393      -0.13747866 </v>
   <v>      -0.03986713      -0.02251930      -0.06336119 </v>
   <v>       0.02477326       0.01354490       0.19546262 </v>
   <v>      -0.00195789      -0.00084851       0.00045497 </v>
   <v>       0.01869384      -0.00367944      -0.10066020 </v>
   <v>       0.05900410       0.01383632       0.08270816 </v>
   <v>       0.00098830      -0.00016565      -0.21511354 </v>
   <v>      -0.00052597       0.04476687      -0.06005054 </v>
   <v>      -0.02593760       0.01483210       0.19547325 </v>
   <v>       0.00137615       0.00021367      -0.16185884 </v>
   <v>      -0.03039079       0.00877120      -0.03349205 </v>
   <v>      -0.07344429       0.01401190       0.08311777 </v>
   <v>       0.00030764       0.00024882      -0.13885646 </v>
   <v>       0.03978371      -0.02349298      -0.05837518 </v>
   <v>      -0.00426963      -0.03214126       0.19542780 </v>
   <v>       0.00114995       0.00187153      -0.00074657 </v>
   <v>       0.09193136       0.07368298      -0.05975923 </v>
   <v>      -0.01231468      -0.05960471       0.07326157 </v>
   <v>       0.00232877      -0.00104050      -0.21759891 </v>
   <v>       0.00021213       0.04437009      -0.06022129 </v>
   <v>      -0.02791581       0.01646688       0.19532715 </v>
   <v>       0.00281218      -0.00119348      -0.16210561 </v>
   <v>       0.00341518      -0.00424427      -0.07210526 </v>
   <v>      -0.06833402       0.00908941       0.07584367 </v>
   <v>      -0.00108086       0.00249003      -0.13866717 </v>
   <v>       0.03892704      -0.02198546      -0.05819180 </v>
   <v>       0.00013339      -0.02888760       0.19512490 </v>
   <v>       0.00135156       0.00538160       0.00111939 </v>
   <v>       0.06500245       0.04812273      -0.02371885 </v>
   <v>      -0.02095221      -0.06638375       0.08123647 </v>
   <v>      -0.00172476      -0.00129000      -0.13617220 </v>
   <v>      -0.04004272      -0.02171133      -0.06408621 </v>
   <v>       0.02463423       0.01055192       0.19585287 </v>
   <v>      -0.00107907       0.00090200       0.00363179 </v>
   <v>      -0.03478122       0.01065335      -0.09217877 </v>
   <v>       0.04762154       0.02175793       0.10548601 </v>
   <v>      -0.03533880      -0.00563193       0.12817010 </v>
   <v>      -0.03866495       0.00484381       0.11168200 </v>
   <v>       0.02398469      -0.05308920       0.11688810 </v>
   <v>      -0.01855529      -0.05071781       0.06916100 </v>
   <v>      -0.01328817       0.03731224       0.07362411 </v>
   <v>       0.05234945       0.02767942       0.07448219 </v>
  </varray>
  <energy>
   <i name="e_fr_energy">   -316.59579470 </i>
   <i name="e_wo_entrp">   -316.47459885 </i>
   <i name="e_0_energy">   -316.55539608 </i>
  </energy>
  <time name="totalsc"> 1945.77 1947.44</time>
  <eigenvalues>
   <array>
    <dimension dim="1">band</dimension>
    <dimension dim="2">kpoint</dimension>
    <dimension dim="3">spin</dimension>
    <field>eigene</field>
    <field>occ</field>
    <set>
     <set comment="spin 1">
      <set comment="kpoint 1">
       <r>  -18.9538    1.0000 </r>
       <r>  -18.6669    1.0000 </r>
       <r>  -18.6578    1.0000 </r>
       <r>  -18.6524    1.0000 </r>
       <r>  -18.6469    1.0000 </r>
       <r>  -18.3974    1.0000 </r>
       <r>   -8.5184    1.0000 </r>
       <r>   -7.8555    1.0000 </r>
       <r>   -7.0731    1.0000 </r>
       <r>   -7.0701    1.0000 </r>
       <r>   -7.0247    1.0000 </r>
       <r>   -6.4823    1.0000 </r>
       <r>   -6.4065    1.0000 </r>
       <r>   -6.4048    1.0000 </r>
       <r>   -6.3962    1.0000 </r>
       <r>   -6.3939    1.0000 </r>
       <r>   -6.1824    1.0000 </r>
       <r>   -6.1764    1.0000 </r>
       <r>   -6.0494    1.0000 </r>
       <r>   -5.9235    1.0000 </r>
       <r>   -5.9228    1.0000 </r>
       <r>   -5.9078    1.0000 </r>
       <r>   -5.9077    1.0000 </r>
       <r>   -5.9066    1.0000 </r>
       <r>   -5.9063    1.0000 </r>
       <r>   -5.7355    1.0000 </r>
       <r>   -5.5345    1.0000 </r>
       <r>   -5.5335    1.0000 </r>
       <r>   -5.5279    1.0000 </r>
       <r>   -5.5272    1.0000 </r>
       <r>   -5.5268    1.0000 </r>
       <r>   -5.5261    1.0000 </r>
       <r>   -5.2960    1.0000 </r>
       <r>   -5.2952    1.0000 </r>
       <r>   -5.2947    1.0000 </r>
       <r>   -5.2937    1.0000 </r>
       <r>   -5.2716    1.0000 </r>
       <r>   -5.2709    1.0000 </r>
       <r>   -4.9936    1.0000 </r>
       <r>   -4.9922    1.0000 </r>
       <r>   -4.9909    1.0000 </r>
       <r>   -4.9898    1.0000 </r>
       <r>   -4.9759    1.0000 </r>
       <r>   -4.9543    1.0000 </r>
       <r>   -4.9100    1.0000 </r>
       <r>   -4.9090    1.0000 </r>
       <r>   -4.7775    1.0000 </r>
       <r>   -4.7761    1.0000 </r>
       <r>   -4.7493    1.0000 </r>
       <r>   -4.7490    1.0000 </r>
       <r>   -4.7467    1.0000 </r>
       <r>   -4.7453    1.0000 </r>
       <r>   -4.7093    1.0000 </r>
       <r>   -4.6904    1.0000 </r>
       <r>   -4.6232    1.0000 </r>
       <r>   -4.6143    1.0000 </r>
       <r>   -4.6134    1.0000 </r>
       <r>   -4.6115    1.0000 </r>
       <r>   -4.6112    1.0000 </r>
       <r>   -4.5843    1.0000 </r>
       <r>   -4.4900    1.0000 </r>
       <r>   -4.4870    1.0000 </r>
       <r>   -4.4234    1.0000 </r>
       <r>   -4.4213    1.0000 </r>
       <r>   -4.3810    1.0000 </r>
       <r>   -4.3803    1.0000 </r>
       <r>   -4.3789    1.0000 </r>
       <r>   -4.3788    1.0000 </r>
       <r>   -4.3781    1.0000 </r>
       <r>   -4.3779    1.0000 </r>
       <r>   -4.3562    1.0000 </r>
       <r>   -4.3454    1.0000 </r>
       <r>   -4.3452    1.0000 </r>
       <r>   -4.2508    1.0000 </r>
       <r>   -4.2067    1.0000 </r>
       <r>   -4.2064    1.0000 </r>
       <r>   -4.2049    1.0000 </r>
       <r>   -4.2037    1.0000 </r>
       <r>   -4.1263    1.0000 </r>
       <r>   -4.1251    1.0000 </r>
       <r>   -4.0669    1.0000 </r>
       <r>   -4.0628    1.0000 </r>
       <r>   -3.9457    1.0000 </r>
       <r>   -3.9303    1.0000 </r>
       <r>   -3.9290    1.0000 </r>
       <r>   -3.9149    1.0000 </r>
       <r>   -3.7815    1.0000 </r>
       <r>   -3.7147    1.0000 </r>
       <r>   -3.7144    1.0000 </r>
       <r>   -3.6847    1.0000 </r>
       <r>   -3.6826    1.0000 </r>
       <r>   -3.6539    1.0000 </r>
       <r>   -3.6533    1.0000 </r>
       <r>   -3.6523    1.0000 </r>
       <r>   -3.6512    1.0000 </r>
       <r>   -3.5603    1.0000 </r>
       <r>   -3.5601    1.0000 </r>
       <r>   -3.5528    1.0000 </r>
       <r>   -3.4472    1.0000 </r>
       <r>   -3.4372    1.0000 </r>
       <r>   -3.2894    1.0000 </r>
       <r>   -3.2873    1.0000 </r>
       <r>   -3.2154    1.0000 </r>
       <r>   -3.2135    1.0000 </r>
       <r>   -3.2105    1.0000 </r>
       <r>   -3.2081    1.0000 </r>
       <r>   -3.2040    1.0000 </r>
       <r>   -3.2030    1.0000 </r>
       <r>   -3.0937    1.0000 </r>
       <r>   -3.0345    1.0000 </r>
       <r>   -3.0333    1.0000 </r>
       <r>   -2.9929    1.0000 </r>
       <r>   -2.9917    1.0000 </r>
       <r>   -2.9899    1.0000 </r>
       <r>   -2.9897    1.0000 </r>
       <r>   -2.9431    1.0000 </r>
       <r>   -2.9400    1.0000 </r>
       <r>   -2.7811    1.0000 </r>
       <r>   -2.6984    1.0000 </r>
       <r>   -2.6981    1.0000 </r>
       <r>   -2.6978    1.0000 </r>
       <r>   -2.6965    1.0000 </r>
       <r>   -2.6839    1.0000 </r>
       <r>   -2.6832    1.0000 </r>
       <r>   -2.6826    1.0000 </r>
       <r>   -2.6820    1.0000 </r>
       <r>   -2.6412    1.0000 </r>
       <r>   -2.6407    1.0000 </r>
       <r>   -2.6401    1.0000 </r>
       <r>   -2.6394    1.0000 </r>
       <r>   -2.6379    1.0000 </r>
       <r>   -2.5303    1.0000 </r>
       <r>   -2.5285    1.0000 </r>
       <r>   -2.5283    1.0000 </r>
       <r>   -2.5244    1.0000 </r>
       <r>   -2.5175    1.0000 </r>
       <r>   -2.5138    1.0000 </r>
       <r>   -2.5050    1.0000 </r>
       <r>   -2.5049    1.0000 </r>
       <r>   -2.4577    1.0000 </r>
       <r>   -2.4570    1.0000 </r>
       <r>   -2.4540    1.0000 </r>
       <r>   -2.4537    1.0000 </r>
       <r>   -2.4006    1.0000 </r>
       <r>   -2.4003    1.0000 </r>
       <r>   -2.3995    1.0000 </r>
       <r>   -2.3994    1.0000 </r>
       <r>   -2.3321    1.0000 </r>
       <r>   -2.3313    1.0000 </r>
       <r>   -2.3204    1.0000 </r>
       <r>   -2.3201    1.0000 </r>
       <r>   -2.3026    1.0000 </r>
       <r>   -2.3022    1.0000 </r>
       <r>   -2.3014    1.0000 </r>
       <r>   -2.3012    1.0000 </r>
       <r>   -2.2448    1.0000 </r>
       <r>   -2.2447    1.0000 </r>
       <r>   -2.2106    1.0000 </r>
       <r>   -2.2101    1.0000 </r>
       <r>   -2.2090    1.0000 </r>
       <r>   -2.2085    1.0000 </r>
       <r>   -2.1593    1.0000 </r>
       <r>   -2.1089    1.0000 </r>
       <r>   -2.1073    1.0000 </r>
       <r>   -2.0950    1.0000 </r>
       <r>   -2.0841    1.0000 </r>
       <r>   -1.9754    1.0000 </r>
       <r>   -1.9745    1.0000 </r>
       <r>   -1.9736    1.0000 </r>
       <r>   -1.9735    1.0000 </r>
       <r>   -1.9699    1.0000 </r>
       <r>   -1.9698    1.0000 </r>
       <r>   -1.8724    1.0000 </r>
       <r>   -1.8724    1.0000 </r>
       <r>   -1.8080    1.0000 </r>
       <r>   -1.8080    1.0000 </r>
       <r>   -1.7756    1.0000 </r>
       <r>   -1.7749    1.0000 </r>
       <r>   -1.7694    1.0000 </r>
       <r>   -1.7682    1.0000 </r>
       <r>   -1.7564    1.0000 </r>
       <r>   -1.7558    1.0000 </r>
       <r>   -1.5473    1.0000 </r>
       <r>   -1.5437    1.0000 </r>
       <r>   -1.3310    1.0000 </r>
       <r>   -1.3301    1.0000 </r>
       <r>   -1.3296    1.0000 </r>
       <r>   -1.3293    1.0000 </r>
       <r>   -1.3069    1.0000 </r>
       <r>   -1.2596    1.0000 </r>
       <r>   -1.2587    1.0000 </r>
       <r>   -1.2546    1.0000 </r>
       <r>   -1.2535    1.0000 </r>
       <r>   -1.2428    1.0000 </r>
       <r>   -1.2405    1.0000 </r>
       <r>   -1.1142    1.0000 </r>
       <r>   -1.1128    1.0000 </r>
       <r>   -1.0336    1.0000 </r>
       <r>   -1.0305    1.0000 </r>
       <r>   -1.0228    1.0000 </r>
       <r>   -1.0197    1.0000 </r>
       <r>   -1.0000    1.0000 </r>
       <r>   -0.9721    1.0000 </r>
       <r>   -0.9718    1.0000 </r>
       <r>   -0.9704    1.0000 </r>
       <r>   -0.9703    1.0000 </r>
       <r>   -0.9702    1.0000 </r>
       <r>   -0.9700    1.0000 </r>
       <r>   -0.9670    1.0000 </r>
       <r>   -0.9133    1.0000 </r>
       <r>   -0.8380    1.0000 </r>
       <r>   -0.7815    1.0000 </r>
       <r>   -0.7676    1.0000 </r>
       <r>   -0.7643    1.0000 </r>
       <r>   -0.7632    1.0000 </r>
       <r>   -0.7614    1.0000 </r>
       <r>   -0.7590    1.0000 </r>
       <r>   -0.7415    1.0000 </r>
       <r>   -0.7380    1.0000 </r>
       <r>   -0.6116    1.0000 </r>
       <r>   -0.6110    1.0000 </r>
       <r>   -0.6031    1.0000 </r>
       <r>   -0.6028    1.0000 </r>
       <r>   -0.5713    1.0000 </r>
       <r>   -0.5703    1.0000 </r>
       <r>   -0.3845    1.0000 </r>
       <r>   -0.3829    1.0000 </r>
       <r>   -0.3788    1.0000 </r>
       <r>   -0.3785    1.0000 </r>
       <r>   -0.3300    1.0000 </r>
       <r>   -0.3295    1.0000 </r>
       <r>   -0.3279    1.0000 </r>
       <r>   -0.3273    1.0000 </r>
       <r>   -0.2733    1.0000 </r>
       <r>   -0.2720    1.0000 </r>
       <r>   -0.2699    1.0000 </r>
       <r>   -0.2693    1.0000 </r>
       <r>   -0.2443    1.0000 </r>
       <r>   -0.2383    1.0000 </r>
       <r>   -0.1875    1.0000 </r>
       <r>   -0.1870    1.0000 </r>
       <r>   -0.1317    1.0000 </r>
       <r>   -0.1314    1.0000 </r>
       <r>   -0.1300    1.0000 </r>
       <r>   -0.1298    1.0000 </r>
       <r>   -0.0870    1.0000 </r>
       <r>   -0.0870    1.0000 </r>
       <r>   -0.0865    1.0000 </r>
       <r>   -0.0864    1.0000 </r>
       <r>   -0.0831    1.0000 </r>
       <r>   -0.0830    1.0000 </r>
       <r>   -0.0385    1.0000 </r>
       <r>   -0.0380    1.0000 </r>
       <r>    0.0177    1.0000 </r>
       <r>    0.0182    1.0000 </r>
       <r>    0.0191    1.0000 </r>
       <r>    0.0193    1.0000 </r>
       <r>    0.0223    1.0000 </r>
       <r>    0.1392    1.0000 </r>
       <r>    0.1400    1.0000 </r>
       <r>    0.1564    1.0000 </r>
       <r>    0.1566    1.0000 </r>
       <r>    0.1570    1.0000 </r>
       <r>    0.1575    1.0000 </r>
       <r>    0.2141    1.0000 </r>
       <r>    0.2177    1.0000 </r>
       <r>    0.2767    1.0001 </r>
       <r>    0.2771    1.0001 </r>
       <r>    0.2773    1.0001 </r>
       <r>    0.2778    1.0001 </r>
       <r>    0.3102    1.0003 </r>
       <r>    0.3106    1.0003 </r>
       <r>    0.3520    1.0008 </r>
       <r>    0.3522    1.0008 </r>
       <r>    0.3525    1.0008 </r>
       <r>    0.3530    1.0008 </r>
       <r>    0.3577    1.0009 </r>
       <r>    0.3580    1.0009 </r>
       <r>    0.3851    1.0016 </r>
       <r>    0.3859    1.0016 </r>
       <r>    0.4454    1.0053 </r>
       <r>    0.4465    1.0054 </r>
       <r>    0.4806    1.0095 </r>
       <r>    0.4808    1.0095 </r>
       <r>    0.4809    1.0095 </r>
       <r>    0.4812    1.0096 </r>
       <r>    0.4832    1.0099 </r>
       <r>    0.4838    1.0099 </r>
       <r>    0.5085    1.0142 </r>
       <r>    0.5091    1.0143 </r>
       <r>    0.5771    1.0292 </r>
       <r>    0.5778    1.0294 </r>
       <r>    0.6331    1.0352 </r>
       <r>    0.6437    1.0339 </r>
       <r>    0.6530    1.0318 </r>
       <r>    0.6535    1.0317 </r>
       <r>    0.7919    0.8040 </r>
       <r>    0.7931    0.7999 </r>
       <r>    0.7936    0.7983 </r>
       <r>    0.7941    0.7967 </r>
       <r>    0.8074    0.7509 </r>
       <r>    0.8076    0.7499 </r>
       <r>    0.9322    0.2500 </r>
       <r>    0.9329    0.2476 </r>
       <r>    0.9997    0.0593 </r>
       <r>    1.0002    0.0583 </r>
       <r>    1.0005    0.0577 </r>
       <r>    1.0009    0.0569 </r>
       <r>    1.2700   -0.0080 </r>
       <r>    1.2732   -0.0076 </r>
       <r>    1.2768   -0.0071 </r>
       <r>    1.5703   -0.0000 </r>
       <r>    1.5721   -0.0000 </r>
       <r>    1.5743   -0.0000 </r>
       <r>    1.5752   -0.0000 </r>
       <r>    1.9186   -0.0000 </r>
       <r>    1.9190   -0.0000 </r>
       <r>    2.0864   -0.0000 </r>
       <r>    2.0964   -0.0000 </r>
       <r>    2.2899   -0.0000 </r>
       <r>    2.8160   -0.0000 </r>
       <r>    2.8187   -0.0000 </r>
       <r>    2.8209   -0.0000 </r>
       <r>    2.8239   -0.0000 </r>
       <r>    3.5833   -0.0000 </r>
       <r>    3.6055   -0.0000 </r>
       <r>    3.6071   -0.0000 </r>
       <r>    4.2225   -0.0000 </r>
       <r>    4.2255   -0.0000 </r>
       <r>    4.2284   -0.0000 </r>
       <r>    4.2294   -0.0000 </r>
       <r>    5.1822   -0.0000 </r>
       <r>    5.1858   -0.0000 </r>
       <r>    5.3483   -0.0000 </r>
       <r>    5.3496   -0.0000 </r>
       <r>    5.3890   -0.0000 </r>
       <r>    5.3967   -0.0000 </r>
       <r>    5.3976   -0.0000 </r>
       <r>    5.3982   -0.0000 </r>
       <r>    5.7183   -0.0000 </r>
       <r>    5.7238   -0.0000 </r>
       <r>    5.7313   -0.0000 </r>
       <r>    5.7345   -0.0000 </r>
       <r>    6.0425   -0.0000 </r>
       <r>    6.0892   -0.0000 </r>
       <r>    6.1163   -0.0000 </r>
      </set>
      <set comment="kpoint 2">
       <r>  -18.9337    1.0000 </r>
       <r>  -18.7270    1.0000 </r>
       <r>  -18.7018    1.0000 </r>
       <r>  -18.6120    1.0000 </r>
       <r>  -18.5880    1.0000 </r>
       <r>  -18.4130    1.0000 </r>
       <r>   -8.3728    1.0000 </r>
       <r>   -7.7222    1.0000 </r>
       <r>   -7.0299    1.0000 </r>
       <r>   -7.0017    1.0000 </r>
       <r>   -6.9035    1.0000 </r>
       <r>   -6.5667    1.0000 </r>
       <r>   -6.4292    1.0000 </r>
       <r>   -6.3623    1.0000 </r>
       <r>   -6.3574    1.0000 </r>
       <r>   -6.3183    1.0000 </r>
       <r>   -6.3018    1.0000 </r>
       <r>   -6.1905    1.0000 </r>
       <r>   -6.1160    1.0000 </r>
       <r>   -6.0342    1.0000 </r>
       <r>   -5.9818    1.0000 </r>
       <r>   -5.9104    1.0000 </r>
       <r>   -5.8315    1.0000 </r>
       <r>   -5.7453    1.0000 </r>
       <r>   -5.7014    1.0000 </r>
       <r>   -5.6857    1.0000 </r>
       <r>   -5.6213    1.0000 </r>
       <r>   -5.5931    1.0000 </r>
       <r>   -5.5677    1.0000 </r>
       <r>   -5.4251    1.0000 </r>
       <r>   -5.3943    1.0000 </r>
       <r>   -5.3433    1.0000 </r>
       <r>   -5.3342    1.0000 </r>
       <r>   -5.3057    1.0000 </r>
       <r>   -5.2707    1.0000 </r>
       <r>   -5.2436    1.0000 </r>
       <r>   -5.2236    1.0000 </r>
       <r>   -5.2166    1.0000 </r>
       <r>   -5.2043    1.0000 </r>
       <r>   -5.1046    1.0000 </r>
       <r>   -5.0765    1.0000 </r>
       <r>   -5.0287    1.0000 </r>
       <r>   -5.0105    1.0000 </r>
       <r>   -4.9801    1.0000 </r>
       <r>   -4.8881    1.0000 </r>
       <r>   -4.8866    1.0000 </r>
       <r>   -4.8828    1.0000 </r>
       <r>   -4.8730    1.0000 </r>
       <r>   -4.8114    1.0000 </r>
       <r>   -4.7936    1.0000 </r>
       <r>   -4.7909    1.0000 </r>
       <r>   -4.7480    1.0000 </r>
       <r>   -4.7381    1.0000 </r>
       <r>   -4.7216    1.0000 </r>
       <r>   -4.6924    1.0000 </r>
       <r>   -4.6342    1.0000 </r>
       <r>   -4.6064    1.0000 </r>
       <r>   -4.6040    1.0000 </r>
       <r>   -4.5899    1.0000 </r>
       <r>   -4.5507    1.0000 </r>
       <r>   -4.5474    1.0000 </r>
       <r>   -4.5260    1.0000 </r>
       <r>   -4.4952    1.0000 </r>
       <r>   -4.4371    1.0000 </r>
       <r>   -4.4331    1.0000 </r>
       <r>   -4.4324    1.0000 </r>
       <r>   -4.3788    1.0000 </r>
       <r>   -4.3768    1.0000 </r>
       <r>   -4.3488    1.0000 </r>
       <r>   -4.2801    1.0000 </r>
       <r>   -4.2686    1.0000 </r>
       <r>   -4.2660    1.0000 </r>
       <r>   -4.2631    1.0000 </r>
       <r>   -4.2355    1.0000 </r>
       <r>   -4.2096    1.0000 </r>
       <r>   -4.1976    1.0000 </r>
       <r>   -4.1933    1.0000 </r>
       <r>   -4.1542    1.0000 </r>
       <r>   -4.1298    1.0000 </r>
       <r>   -4.0411    1.0000 </r>
       <r>   -4.0200    1.0000 </r>
       <r>   -4.0172    1.0000 </r>
       <r>   -3.9908    1.0000 </r>
       <r>   -3.9160    1.0000 </r>
       <r>   -3.9110    1.0000 </r>
       <r>   -3.8839    1.0000 </r>
       <r>   -3.7813    1.0000 </r>
       <r>   -3.7226    1.0000 </r>
       <r>   -3.7191    1.0000 </r>
       <r>   -3.7127    1.0000 </r>
       <r>   -3.6646    1.0000 </r>
       <r>   -3.6631    1.0000 </r>
       <r>   -3.6611    1.0000 </r>
       <r>   -3.6234    1.0000 </r>
       <r>   -3.6094    1.0000 </r>
       <r>   -3.5683    1.0000 </r>
       <r>   -3.5450    1.0000 </r>
       <r>   -3.5233    1.0000 </r>
       <r>   -3.4148    1.0000 </r>
       <r>   -3.4108    1.0000 </r>
       <r>   -3.3858    1.0000 </r>
       <r>   -3.3506    1.0000 </r>
       <r>   -3.3222    1.0000 </r>
       <r>   -3.2946    1.0000 </r>
       <r>   -3.2763    1.0000 </r>
       <r>   -3.2592    1.0000 </r>
       <r>   -3.2456    1.0000 </r>
       <r>   -3.2237    1.0000 </r>
       <r>   -3.1774    1.0000 </r>
       <r>   -3.1655    1.0000 </r>
       <r>   -3.1429    1.0000 </r>
       <r>   -3.0736    1.0000 </r>
       <r>   -3.0314    1.0000 </r>
       <r>   -2.9931    1.0000 </r>
       <r>   -2.9776    1.0000 </r>
       <r>   -2.9196    1.0000 </r>
       <r>   -2.9120    1.0000 </r>
       <r>   -2.9065    1.0000 </r>
       <r>   -2.8924    1.0000 </r>
       <r>   -2.8568    1.0000 </r>
       <r>   -2.8439    1.0000 </r>
       <r>   -2.8389    1.0000 </r>
       <r>   -2.8238    1.0000 </r>
       <r>   -2.7678    1.0000 </r>
       <r>   -2.7509    1.0000 </r>
       <r>   -2.7444    1.0000 </r>
       <r>   -2.7151    1.0000 </r>
       <r>   -2.6909    1.0000 </r>
       <r>   -2.6844    1.0000 </r>
       <r>   -2.6518    1.0000 </r>
       <r>   -2.6264    1.0000 </r>
       <r>   -2.6098    1.0000 </r>
       <r>   -2.6077    1.0000 </r>
       <r>   -2.5560    1.0000 </r>
       <r>   -2.5543    1.0000 </r>
       <r>   -2.5523    1.0000 </r>
       <r>   -2.5393    1.0000 </r>
       <r>   -2.5377    1.0000 </r>
       <r>   -2.5191    1.0000 </r>
       <r>   -2.4812    1.0000 </r>
       <r>   -2.4559    1.0000 </r>
       <r>   -2.4463    1.0000 </r>
       <r>   -2.4211    1.0000 </r>
       <r>   -2.4094    1.0000 </r>
       <r>   -2.3947    1.0000 </r>
       <r>   -2.3925    1.0000 </r>
       <r>   -2.3877    1.0000 </r>
       <r>   -2.3602    1.0000 </r>
       <r>   -2.3478    1.0000 </r>
       <r>   -2.3256    1.0000 </r>
       <r>   -2.3219    1.0000 </r>
       <r>   -2.2974    1.0000 </r>
       <r>   -2.2813    1.0000 </r>
       <r>   -2.2747    1.0000 </r>
       <r>   -2.2292    1.0000 </r>
       <r>   -2.2272    1.0000 </r>
       <r>   -2.2161    1.0000 </r>
       <r>   -2.1986    1.0000 </r>
       <r>   -2.1916    1.0000 </r>
       <r>   -2.1573    1.0000 </r>
       <r>   -2.1428    1.0000 </r>
       <r>   -2.1370    1.0000 </r>
       <r>   -2.0869    1.0000 </r>
       <r>   -2.0856    1.0000 </r>
       <r>   -2.0719    1.0000 </r>
       <r>   -2.0629    1.0000 </r>
       <r>   -1.9940    1.0000 </r>
       <r>   -1.9829    1.0000 </r>
       <r>   -1.9710    1.0000 </r>
       <r>   -1.9657    1.0000 </r>
       <r>   -1.9516    1.0000 </r>
       <r>   -1.9143    1.0000 </r>
       <r>   -1.9071    1.0000 </r>
       <r>   -1.8875    1.0000 </r>
       <r>   -1.8852    1.0000 </r>
       <r>   -1.8696    1.0000 </r>
       <r>   -1.8135    1.0000 </r>
       <r>   -1.7774    1.0000 </r>
       <r>   -1.7210    1.0000 </r>
       <r>   -1.7143    1.0000 </r>
       <r>   -1.6983    1.0000 </r>
       <r>   -1.6731    1.0000 </r>
       <r>   -1.6425    1.0000 </r>
       <r>   -1.6227    1.0000 </r>
       <r>   -1.5912    1.0000 </r>
       <r>   -1.5822    1.0000 </r>
       <r>   -1.5809    1.0000 </r>
       <r>   -1.5432    1.0000 </r>
       <r>   -1.5400    1.0000 </r>
       <r>   -1.4942    1.0000 </r>
       <r>   -1.4414    1.0000 </r>
       <r>   -1.4035    1.0000 </r>
       <r>   -1.3482    1.0000 </r>
       <r>   -1.3159    1.0000 </r>
       <r>   -1.2565    1.0000 </r>
       <r>   -1.2089    1.0000 </r>
       <r>   -1.2082    1.0000 </r>
       <r>   -1.2072    1.0000 </r>
       <r>   -1.1486    1.0000 </r>
       <r>   -1.1364    1.0000 </r>
       <r>   -1.1279    1.0000 </r>
       <r>   -1.0723    1.0000 </r>
       <r>   -1.0451    1.0000 </r>
       <r>   -1.0011    1.0000 </r>
       <r>   -0.9975    1.0000 </r>
       <r>   -0.9775    1.0000 </r>
       <r>   -0.9686    1.0000 </r>
       <r>   -0.9516    1.0000 </r>
       <r>   -0.9376    1.0000 </r>
       <r>   -0.8654    1.0000 </r>
       <r>   -0.8584    1.0000 </r>
       <r>   -0.8534    1.0000 </r>
       <r>   -0.8409    1.0000 </r>
       <r>   -0.8050    1.0000 </r>
       <r>   -0.8040    1.0000 </r>
       <r>   -0.7941    1.0000 </r>
       <r>   -0.7922    1.0000 </r>
       <r>   -0.7868    1.0000 </r>
       <r>   -0.7317    1.0000 </r>
       <r>   -0.7068    1.0000 </r>
       <r>   -0.6582    1.0000 </r>
       <r>   -0.6486    1.0000 </r>
       <r>   -0.6202    1.0000 </r>
       <r>   -0.5910    1.0000 </r>
       <r>   -0.5894    1.0000 </r>
       <r>   -0.5571    1.0000 </r>
       <r>   -0.5362    1.0000 </r>
       <r>   -0.5192    1.0000 </r>
       <r>   -0.5089    1.0000 </r>
       <r>   -0.4857    1.0000 </r>
       <r>   -0.4306    1.0000 </r>
       <r>   -0.4293    1.0000 </r>
       <r>   -0.4241    1.0000 </r>
       <r>   -0.3908    1.0000 </r>
       <r>   -0.3176    1.0000 </r>
       <r>   -0.3168    1.0000 </r>
       <r>   -0.2871    1.0000 </r>
       <r>   -0.2778    1.0000 </r>
       <r>   -0.2559    1.0000 </r>
       <r>   -0.2384    1.0000 </r>
       <r>   -0.2287    1.0000 </r>
       <r>   -0.1945    1.0000 </r>
       <r>   -0.1633    1.0000 </r>
       <r>   -0.1547    1.0000 </r>
       <r>   -0.1212    1.0000 </r>
       <r>   -0.1185    1.0000 </r>
       <r>   -0.0504    1.0000 </r>
       <r>   -0.0268    1.0000 </r>
       <r>   -0.0197    1.0000 </r>
       <r>   -0.0018    1.0000 </r>
       <r>   -0.0007    1.0000 </r>
       <r>    0.0409    1.0000 </r>
       <r>    0.0431    1.0000 </r>
       <r>    0.0743    1.0000 </r>
       <r>    0.0781    1.0000 </r>
       <r>    0.0815    1.0000 </r>
       <r>    0.1563    1.0000 </r>
       <r>    0.1664    1.0000 </r>
       <r>    0.1916    1.0000 </r>
       <r>    0.1936    1.0000 </r>
       <r>    0.2255    1.0000 </r>
       <r>    0.2520    1.0001 </r>
       <r>    0.2555    1.0001 </r>
       <r>    0.2697    1.0001 </r>
       <r>    0.2901    1.0002 </r>
       <r>    0.3062    1.0002 </r>
       <r>    0.3363    1.0005 </r>
       <r>    0.3679    1.0011 </r>
       <r>    0.3837    1.0016 </r>
       <r>    0.4231    1.0035 </r>
       <r>    0.4283    1.0039 </r>
       <r>    0.4370    1.0045 </r>
       <r>    0.4947    1.0117 </r>
       <r>    0.5185    1.0161 </r>
       <r>    0.5222    1.0169 </r>
       <r>    0.5237    1.0172 </r>
       <r>    0.5261    1.0177 </r>
       <r>    0.5385    1.0204 </r>
       <r>    0.5533    1.0238 </r>
       <r>    0.6106    1.0347 </r>
       <r>    0.6252    1.0355 </r>
       <r>    0.6350    1.0350 </r>
       <r>    0.6725    1.0237 </r>
       <r>    0.6882    1.0128 </r>
       <r>    0.6954    1.0064 </r>
       <r>    0.7208    0.9748 </r>
       <r>    0.7306    0.9587 </r>
       <r>    0.7351    0.9505 </r>
       <r>    0.7682    0.8747 </r>
       <r>    0.8145    0.7248 </r>
       <r>    0.8187    0.7090 </r>
       <r>    0.8197    0.7054 </r>
       <r>    0.8269    0.6776 </r>
       <r>    0.8351    0.6451 </r>
       <r>    0.8692    0.5031 </r>
       <r>    0.8873    0.4268 </r>
       <r>    0.9151    0.3142 </r>
       <r>    0.9271    0.2686 </r>
       <r>    0.9389    0.2265 </r>
       <r>    0.9589    0.1617 </r>
       <r>    0.9702    0.1293 </r>
       <r>    0.9810    0.1011 </r>
       <r>    1.0476   -0.0093 </r>
       <r>    1.0500   -0.0114 </r>
       <r>    1.0889   -0.0324 </r>
       <r>    1.1206   -0.0353 </r>
       <r>    1.1651   -0.0287 </r>
       <r>    1.2024   -0.0202 </r>
       <r>    1.2768   -0.0071 </r>
       <r>    1.3032   -0.0045 </r>
       <r>    1.4360   -0.0002 </r>
       <r>    1.4946   -0.0000 </r>
       <r>    1.7872   -0.0000 </r>
       <r>    1.8728   -0.0000 </r>
       <r>    1.9838   -0.0000 </r>
       <r>    2.0023   -0.0000 </r>
       <r>    2.0139   -0.0000 </r>
       <r>    2.0405   -0.0000 </r>
       <r>    2.0482   -0.0000 </r>
       <r>    2.2020   -0.0000 </r>
       <r>    2.6942   -0.0000 </r>
       <r>    2.7620   -0.0000 </r>
       <r>    3.1347   -0.0000 </r>
       <r>    3.2263   -0.0000 </r>
       <r>    3.4029   -0.0000 </r>
       <r>    3.6096   -0.0000 </r>
       <r>    3.8245   -0.0000 </r>
       <r>    3.9514   -0.0000 </r>
       <r>    4.2552   -0.0000 </r>
       <r>    4.2892   -0.0000 </r>
       <r>    4.3063   -0.0000 </r>
       <r>    4.6880   -0.0000 </r>
       <r>    4.7640   -0.0000 </r>
       <r>    4.9092   -0.0000 </r>
       <r>    4.9140   -0.0000 </r>
       <r>    4.9251   -0.0000 </r>
       <r>    5.2523   -0.0000 </r>
       <r>    5.4273   -0.0000 </r>
       <r>    5.5532   -0.0000 </r>
       <r>    5.5572   -0.0000 </r>
       <r>    5.7338   -0.0000 </r>
       <r>    5.8164   -0.0000 </r>
       <r>    5.9106   -0.0000 </r>
       <r>    6.2454   -0.0000 </r>
       <r>    6.2643   -0.0000 </r>
       <r>    6.2781   -0.0000 </r>
      </set>
      <set comment="kpoint 3">
       <r>  -18.9335    1.0000 </r>
       <r>  -18.7243    1.0000 </r>
       <r>  -18.7066    1.0000 </r>
       <r>  -18.6066    1.0000 </r>
       <r>  -18.5913    1.0000 </r>
       <r>  -18.4132    1.0000 </r>
       <r>   -8.3728    1.0000 </r>
       <r>   -7.7221    1.0000 </r>
       <r>   -7.0270    1.0000 </r>
       <r>   -7.0044    1.0000 </r>
       <r>   -6.9029    1.0000 </r>
       <r>   -6.5654    1.0000 </r>
       <r>   -6.4291    1.0000 </r>
       <r>   -6.3620    1.0000 </r>
       <r>   -6.3564    1.0000 </r>
       <r>   -6.3225    1.0000 </r>
       <r>   -6.3000    1.0000 </r>
       <r>   -6.1929    1.0000 </r>
       <r>   -6.1146    1.0000 </r>
       <r>   -6.0334    1.0000 </r>
       <r>   -5.9823    1.0000 </r>
       <r>   -5.9103    1.0000 </r>
       <r>   -5.8315    1.0000 </r>
       <r>   -5.7456    1.0000 </r>
       <r>   -5.7014    1.0000 </r>
       <r>   -5.6854    1.0000 </r>
       <r>   -5.6205    1.0000 </r>
       <r>   -5.5931    1.0000 </r>
       <r>   -5.5681    1.0000 </r>
       <r>   -5.4247    1.0000 </r>
       <r>   -5.3955    1.0000 </r>
       <r>   -5.3442    1.0000 </r>
       <r>   -5.3346    1.0000 </r>
       <r>   -5.3054    1.0000 </r>
       <r>   -5.2710    1.0000 </r>
       <r>   -5.2432    1.0000 </r>
       <r>   -5.2234    1.0000 </r>
       <r>   -5.2066    1.0000 </r>
       <r>   -5.2033    1.0000 </r>
       <r>   -5.1174    1.0000 </r>
       <r>   -5.0762    1.0000 </r>
       <r>   -5.0233    1.0000 </r>
       <r>   -5.0116    1.0000 </r>
       <r>   -4.9802    1.0000 </r>
       <r>   -4.8923    1.0000 </r>
       <r>   -4.8869    1.0000 </r>
       <r>   -4.8832    1.0000 </r>
       <r>   -4.8727    1.0000 </r>
       <r>   -4.8108    1.0000 </r>
       <r>   -4.7930    1.0000 </r>
       <r>   -4.7869    1.0000 </r>
       <r>   -4.7480    1.0000 </r>
       <r>   -4.7383    1.0000 </r>
       <r>   -4.7207    1.0000 </r>
       <r>   -4.6905    1.0000 </r>
       <r>   -4.6350    1.0000 </r>
       <r>   -4.6102    1.0000 </r>
       <r>   -4.6041    1.0000 </r>
       <r>   -4.5890    1.0000 </r>
       <r>   -4.5509    1.0000 </r>
       <r>   -4.5464    1.0000 </r>
       <r>   -4.5258    1.0000 </r>
       <r>   -4.4954    1.0000 </r>
       <r>   -4.4363    1.0000 </r>
       <r>   -4.4327    1.0000 </r>
       <r>   -4.4324    1.0000 </r>
       <r>   -4.3789    1.0000 </r>
       <r>   -4.3771    1.0000 </r>
       <r>   -4.3488    1.0000 </r>
       <r>   -4.2793    1.0000 </r>
       <r>   -4.2687    1.0000 </r>
       <r>   -4.2677    1.0000 </r>
       <r>   -4.2651    1.0000 </r>
       <r>   -4.2360    1.0000 </r>
       <r>   -4.2101    1.0000 </r>
       <r>   -4.1970    1.0000 </r>
       <r>   -4.1924    1.0000 </r>
       <r>   -4.1552    1.0000 </r>
       <r>   -4.1282    1.0000 </r>
       <r>   -4.0406    1.0000 </r>
       <r>   -4.0197    1.0000 </r>
       <r>   -4.0169    1.0000 </r>
       <r>   -3.9905    1.0000 </r>
       <r>   -3.9162    1.0000 </r>
       <r>   -3.9109    1.0000 </r>
       <r>   -3.8855    1.0000 </r>
       <r>   -3.7804    1.0000 </r>
       <r>   -3.7219    1.0000 </r>
       <r>   -3.7205    1.0000 </r>
       <r>   -3.7134    1.0000 </r>
       <r>   -3.6656    1.0000 </r>
       <r>   -3.6649    1.0000 </r>
       <r>   -3.6595    1.0000 </r>
       <r>   -3.6246    1.0000 </r>
       <r>   -3.6089    1.0000 </r>
       <r>   -3.5682    1.0000 </r>
       <r>   -3.5461    1.0000 </r>
       <r>   -3.5227    1.0000 </r>
       <r>   -3.4147    1.0000 </r>
       <r>   -3.4114    1.0000 </r>
       <r>   -3.3855    1.0000 </r>
       <r>   -3.3516    1.0000 </r>
       <r>   -3.3259    1.0000 </r>
       <r>   -3.2912    1.0000 </r>
       <r>   -3.2743    1.0000 </r>
       <r>   -3.2584    1.0000 </r>
       <r>   -3.2469    1.0000 </r>
       <r>   -3.2259    1.0000 </r>
       <r>   -3.1773    1.0000 </r>
       <r>   -3.1665    1.0000 </r>
       <r>   -3.1415    1.0000 </r>
       <r>   -3.0741    1.0000 </r>
       <r>   -3.0303    1.0000 </r>
       <r>   -2.9943    1.0000 </r>
       <r>   -2.9802    1.0000 </r>
       <r>   -2.9172    1.0000 </r>
       <r>   -2.9095    1.0000 </r>
       <r>   -2.9062    1.0000 </r>
[...]
       <r>   -17.7353    -0.0017    12.0000 </r>
       <r>   -17.6378    -0.0001    12.0000 </r>
       <r>   -17.5403    -0.0000    12.0000 </r>
       <r>   -17.4428    -0.0000    12.0000 </r>
       <r>   -17.3452    -0.0000    12.0000 </r>
       <r>   -17.2477    -0.0000    12.0000 </r>
       <r>   -17.1502    -0.0000    12.0000 </r>
       <r>   -17.0527     0.0000    12.0000 </r>
       <r>   -16.9551     0.0000    12.0000 </r>
       <r>   -16.8576     0.0000    12.0000 </r>
       <r>   -16.7601     0.0000    12.0000 </r>
       <r>   -16.6625     0.0000    12.0000 </r>
       <r>   -16.5650     0.0000    12.0000 </r>
       <r>   -16.4675     0.0000    12.0000 </r>
       <r>   -16.3700     0.0000    12.0000 </r>
       <r>   -16.2724     0.0000    12.0000 </r>
       <r>   -16.1749     0.0000    12.0000 </r>
       <r>   -16.0774     0.0000    12.0000 </r>
       <r>   -15.9798     0.0000    12.0000 </r>
       <r>   -15.8823     0.0000    12.0000 </r>
       <r>   -15.7848     0.0000    12.0000 </r>
       <r>   -15.6873     0.0000    12.0000 </r>
       <r>   -15.5897     0.0000    12.0000 </r>
       <r>   -15.4922     0.0000    12.0000 </r>
       <r>   -15.3947     0.0000    12.0000 </r>
       <r>   -15.2971     0.0000    12.0000 </r>
       <r>   -15.1996     0.0000    12.0000 </r>
       <r>   -15.1021     0.0000    12.0000 </r>
       <r>   -15.0046     0.0000    12.0000 </r>
       <r>   -14.9070     0.0000    12.0000 </r>
       <r>   -14.8095     0.0000    12.0000 </r>
       <r>   -14.7120     0.0000    12.0000 </r>
       <r>   -14.6144     0.0000    12.0000 </r>
       <r>   -14.5169     0.0000    12.0000 </r>
       <r>   -14.4194     0.0000    12.0000 </r>
       <r>   -14.3219     0.0000    12.0000 </r>
       <r>   -14.2243     0.0000    12.0000 </r>
       <r>   -14.1268     0.0000    12.0000 </r>
       <r>   -14.0293     0.0000    12.0000 </r>
       <r>   -13.9317     0.0000    12.0000 </r>
       <r>   -13.8342     0.0000    12.0000 </r>
       <r>   -13.7367     0.0000    12.0000 </r>
       <r>   -13.6392     0.0000    12.0000 </r>
       <r>   -13.5416     0.0000    12.0000 </r>
       <r>   -13.4441     0.0000    12.0000 </r>
       <r>   -13.3466     0.0000    12.0000 </r>
       <r>   -13.2490     0.0000    12.0000 </r>
       <r>   -13.1515     0.0000    12.0000 </r>
       <r>   -13.0540     0.0000    12.0000 </r>
       <r>   -12.9565     0.0000    12.0000 </r>
       <r>   -12.8589     0.0000    12.0000 </r>
       <r>   -12.7614     0.0000    12.0000 </r>
       <r>   -12.6639     0.0000    12.0000 </r>
       <r>   -12.5663     0.0000    12.0000 </r>
       <r>   -12.4688     0.0000    12.0000 </r>
       <r>   -12.3713     0.0000    12.0000 </r>
       <r>   -12.2738     0.0000    12.0000 </r>
       <r>   -12.1762     0.0000    12.0000 </r>
       <r>   -12.0787     0.0000    12.0000 </r>
       <r>   -11.9812     0.0000    12.0000 </r>
       <r>   -11.8837     0.0000    12.0000 </r>
       <r>   -11.7861     0.0000    12.0000 </r>
       <r>   -11.6886     0.0000    12.0000 </r>
       <r>   -11.5911     0.0000    12.0000 </r>
       <r>   -11.4935     0.0000    12.0000 </r>
       <r>   -11.3960     0.0000    12.0000 </r>
       <r>   -11.2985     0.0000    12.0000 </r>
       <r>   -11.2010     0.0000    12.0000 </r>
       <r>   -11.1034     0.0000    12.0000 </r>
       <r>   -11.0059     0.0000    12.0000 </r>
       <r>   -10.9084     0.0000    12.0000 </r>
       <r>   -10.8108     0.0000    12.0000 </r>
       <r>   -10.7133     0.0000    12.0000 </r>
       <r>   -10.6158     0.0000    12.0000 </r>
       <r>   -10.5183     0.0000    12.0000 </r>
       <r>   -10.4207     0.0000    12.0000 </r>
       <r>   -10.3232     0.0000    12.0000 </r>
       <r>   -10.2257     0.0000    12.0000 </r>
       <r>   -10.1281    -0.0000    12.0000 </r>
       <r>   -10.0306    -0.0000    12.0000 </r>
       <r>    -9.9331    -0.0000    12.0000 </r>
       <r>    -9.8356    -0.0000    12.0000 </r>
       <r>    -9.7380    -0.0000    12.0000 </r>
       <r>    -9.6405    -0.0000    12.0000 </r>
       <r>    -9.5430    -0.0000    12.0000 </r>
       <r>    -9.4454    -0.0000    12.0000 </r>
       <r>    -9.3479    -0.0000    12.0000 </r>
       <r>    -9.2504    -0.0000    12.0000 </r>
       <r>    -9.1529    -0.0000    12.0000 </r>
       <r>    -9.0553    -0.0004    12.0000 </r>
       <r>    -8.9578    -0.0036    11.9996 </r>
       <r>    -8.8603    -0.0184    11.9978 </r>
       <r>    -8.7627    -0.0529    11.9927 </r>
       <r>    -8.6652    -0.0462    11.9882 </r>
       <r>    -8.5677     0.2469    12.0122 </r>
       <r>    -8.4702     1.0640    12.1160 </r>
       <r>    -8.3726     1.8849    12.2998 </r>
       <r>    -8.2751     1.8309    12.4784 </r>
       <r>    -8.1776     1.5923    12.6337 </r>
       <r>    -8.0800     2.3110    12.8591 </r>
       <r>    -7.9825     3.0920    13.1606 </r>
       <r>    -7.8850     2.8117    13.4349 </r>
       <r>    -7.7875     2.3408    13.6631 </r>
       <r>    -7.6899     3.1127    13.9667 </r>
       <r>    -7.5924     4.9657    14.4510 </r>
       <r>    -7.4949     6.4188    15.0770 </r>
       <r>    -7.3974     6.2952    15.6910 </r>
       <r>    -7.2998     4.3794    16.1181 </r>
       <r>    -7.2023     3.1347    16.4238 </r>
       <r>    -7.1048     7.4640    17.1518 </r>
       <r>    -7.0072    15.0556    18.6201 </r>
       <r>    -6.9097    16.3709    20.2168 </r>
       <r>    -6.8122    11.3714    21.3258 </r>
       <r>    -6.7147     9.0012    22.2037 </r>
       <r>    -6.6171    12.2196    23.3954 </r>
       <r>    -6.5196    18.2529    25.1756 </r>
       <r>    -6.4221    24.2061    27.5364 </r>
       <r>    -6.3245    27.1985    30.1890 </r>
       <r>    -6.2270    26.9910    32.8214 </r>
       <r>    -6.1295    26.4108    35.3972 </r>
       <r>    -6.0320    27.1306    38.0432 </r>
       <r>    -5.9344    26.9424    40.6708 </r>
       <r>    -5.8369    25.2341    43.1319 </r>
       <r>    -5.7394    28.4647    45.9080 </r>
       <r>    -5.6418    38.6552    49.6780 </r>
       <r>    -5.5443    47.1536    54.2768 </r>
       <r>    -5.4468    50.3094    59.1834 </r>
       <r>    -5.3493    53.7659    64.4271 </r>
       <r>    -5.2517    59.8886    70.2679 </r>
       <r>    -5.1542    64.5517    76.5635 </r>
       <r>    -5.0567    67.4972    83.1464 </r>
       <r>    -4.9591    72.7380    90.2404 </r>
       <r>    -4.8616    78.6200    97.9081 </r>
       <r>    -4.7641    80.5492   105.7639 </r>
       <r>    -4.6666    77.1499   113.2882 </r>
       <r>    -4.5690    72.2180   120.3315 </r>
       <r>    -4.4715    72.7083   127.4226 </r>
       <r>    -4.3740    76.9400   134.9264 </r>
       <r>    -4.2764    77.2648   142.4619 </r>
       <r>    -4.1789    72.4670   149.5295 </r>
       <r>    -4.0814    66.2596   155.9917 </r>
       <r>    -3.9839    60.7717   161.9187 </r>
       <r>    -3.8863    56.4972   167.4287 </r>
       <r>    -3.7888    59.3639   173.2184 </r>
       <r>    -3.6913    70.8040   180.1238 </r>
       <r>    -3.5937    76.7890   187.6129 </r>
       <r>    -3.4962    73.4752   194.7788 </r>
       <r>    -3.3987    74.8495   202.0787 </r>
       <r>    -3.3012    83.8961   210.2610 </r>
       <r>    -3.2036    89.2347   218.9639 </r>
       <r>    -3.1061    86.0963   227.3607 </r>
       <r>    -3.0086    82.6033   235.4169 </r>
       <r>    -2.9110    83.7406   243.5839 </r>
       <r>    -2.8135    85.3390   251.9069 </r>
       <r>    -2.7160    86.8536   260.3776 </r>
       <r>    -2.6185    90.7064   269.2240 </r>
       <r>    -2.5209    96.8025   278.6650 </r>
       <r>    -2.4234   104.7941   288.8854 </r>
       <r>    -2.3259   111.2049   299.7310 </r>
       <r>    -2.2284   112.2135   310.6750 </r>
       <r>    -2.1308   110.2837   321.4308 </r>
       <r>    -2.0333   106.6578   331.8330 </r>
       <r>    -1.9358   100.1137   341.5969 </r>
       <r>    -1.8382    95.2657   350.8880 </r>
       <r>    -1.7407    94.2725   360.0822 </r>
       <r>    -1.6432    88.8712   368.7497 </r>
       <r>    -1.5457    75.8026   376.1426 </r>
       <r>    -1.4481    65.5050   382.5312 </r>
       <r>    -1.3506    66.8353   389.0495 </r>
       <r>    -1.2531    73.7116   396.2385 </r>
       <r>    -1.1555    76.8081   403.7294 </r>
       <r>    -1.0580    80.8460   411.6142 </r>
       <r>    -0.9605    92.2647   420.6126 </r>
       <r>    -0.8630   100.0275   430.3681 </r>
       <r>    -0.7654    91.5920   439.3009 </r>
       <r>    -0.6679    74.4994   446.5667 </r>
       <r>    -0.5704    66.4778   453.0502 </r>
       <r>    -0.4728    70.9049   459.9654 </r>
       <r>    -0.3753    77.7249   467.5458 </r>
       <r>    -0.2778    83.5523   475.6945 </r>
       <r>    -0.1803    88.6862   484.3439 </r>
       <r>    -0.0827    89.2232   493.0457 </r>
       <r>     0.0148    85.0128   501.3369 </r>
       <r>     0.1123    79.4530   509.0858 </r>
       <r>     0.2099    76.3260   516.5297 </r>
       <r>     0.3074    76.4133   523.9822 </r>
       <r>     0.4049    77.7370   531.5637 </r>
       <r>     0.5024    82.8670   539.6456 </r>
       <r>     0.6000    91.6603   548.5851 </r>
       <r>     0.6975    98.7234   558.2134 </r>
       <r>     0.7950   103.1426   568.2727 </r>
       <r>     0.8926   102.3942   578.2591 </r>
       <r>     0.9901    91.7293   587.2053 </r>
       <r>     1.0876    77.6901   594.7822 </r>
       <r>     1.1851    68.7181   601.4842 </r>
       <r>     1.2827    58.9166   607.2302 </r>
       <r>     1.3802    41.4820   611.2759 </r>
       <r>     1.4777    24.0606   613.6225 </r>
       <r>     1.5753    14.4205   615.0289 </r>
       <r>     1.6728    10.3836   616.0416 </r>
       <r>     1.7703    11.5713   617.1701 </r>
       <r>     1.8678    20.3705   619.1568 </r>
       <r>     1.9654    33.0684   622.3819 </r>
       <r>     2.0629    39.4262   626.2271 </r>
       <r>     2.1604    34.2049   629.5631 </r>
       <r>     2.2579    23.8899   631.8930 </r>
       <r>     2.3555    16.1439   633.4675 </r>
       <r>     2.4530    11.9241   634.6304 </r>
       <r>     2.5505     9.6641   635.5729 </r>
       <r>     2.6481    10.6622   636.6128 </r>
       <r>     2.7456    15.5162   638.1261 </r>
       <r>     2.8431    18.5472   639.9349 </r>
       <r>     2.9406    16.4459   641.5389 </r>
       <r>     3.0382    14.3417   642.9376 </r>
       <r>     3.1357    16.0819   644.5061 </r>
       <r>     3.2332    18.6733   646.3272 </r>
       <r>     3.3308    17.1310   647.9980 </r>
       <r>     3.4283    13.3784   649.3028 </r>
       <r>     3.5258    13.3989   650.6095 </r>
       <r>     3.6233    16.8421   652.2521 </r>
       <r>     3.7209    18.8319   654.0888 </r>
       <r>     3.8184    17.2887   655.7749 </r>
       <r>     3.9159    14.3037   657.1699 </r>
       <r>     4.0135    13.7450   658.5104 </r>
       <r>     4.1110    17.3174   660.1994 </r>
       <r>     4.2085    21.1911   662.2661 </r>
       <r>     4.3060    20.3040   664.2463 </r>
       <r>     4.4036    14.6541   665.6755 </r>
       <r>     4.5011    10.8671   666.7354 </r>
       <r>     4.5986    13.7216   668.0736 </r>
       <r>     4.6962    17.4568   669.7761 </r>
       <r>     4.7937    16.2763   671.3635 </r>
       <r>     4.8912    13.2084   672.6517 </r>
       <r>     4.9887    11.1900   673.7431 </r>
       <r>     5.0863    10.3402   674.7515 </r>
       <r>     5.1838    13.0418   676.0235 </r>
       <r>     5.2813    17.3050   677.7112 </r>
       <r>     5.3789    17.2844   679.3969 </r>
       <r>     5.4764    15.3122   680.8903 </r>
       <r>     5.5739    15.9208   682.4430 </r>
       <r>     5.6714    17.4693   684.1468 </r>
       <r>     5.7690    16.9158   685.7965 </r>
       <r>     5.8665    12.9173   687.0563 </r>
       <r>     5.9640     7.8052   687.8176 </r>
       <r>     6.0616     6.7230   688.4732 </r>
       <r>     6.1591    10.6909   689.5159 </r>
       <r>     6.2566    13.4227   690.8250 </r>
       <r>     6.3541     9.6836   691.7694 </r>
       <r>     6.4517     3.2501   692.0864 </r>
       <r>     6.5492    -0.1468   692.0721 </r>
       <r>     6.6467    -0.5165   692.0217 </r>
       <r>     6.7442    -0.1860   692.0036 </r>
       <r>     6.8418    -0.0331   692.0003 </r>
       <r>     6.9393    -0.0034   692.0000 </r>
       <r>     7.0368    -0.0002   692.0000 </r>
       <r>     7.1344    -0.0000   692.0000 </r>
       <r>     7.2319    -0.0000   692.0000 </r>
       <r>     7.3294    -0.0000   692.0000 </r>
       <r>     7.4269    -0.0000   692.0000 </r>
       <r>     7.5245    -0.0000   692.0000 </r>
       <r>     7.6220    -0.0000   692.0000 </r>
       <r>     7.7195     0.0000   692.0000 </r>
       <r>     7.8171     0.0000   692.0000 </r>
       <r>     7.9146     0.0000   692.0000 </r>
       <r>     8.0121     0.0000   692.0000 </r>
       <r>     8.1096     0.0000   692.0000 </r>
       <r>     8.2072     0.0000   692.0000 </r>
       <r>     8.3047     0.0000   692.0000 </r>
      </set>
     </set>
    </array>
   </total>
  </dos>
 </calculation>
 <structure name="finalpos" >
  <crystal>
   <varray name="basis" >
    <v>       8.46376883       0.00000000      -0.00000000 </v>
    <v>      -4.23188442       7.32983882       0.00000000 </v>
    <v>       0.00000000       0.00000000      34.55319157 </v>
   </varray>
   <i name="volume">   2143.61301901 </i>
   <varray name="rec_basis" >
    <v>       0.11815067       0.06821432      -0.00000000 </v>
    <v>      -0.00000000       0.13642865       0.00000000 </v>
    <v>       0.00000000       0.00000000       0.02894089 </v>
   </varray>
  </crystal>
  <varray name="positions" >
   <v>       0.11111111       0.22222222       0.33333333 </v>
   <v>       0.00000000       0.00000000       0.46666667 </v>
   <v>       0.22222222       0.11111111       0.40000000 </v>
   <v>       0.11111111       0.22222222       0.53333333 </v>
   <v>       0.31860797       0.99257949       0.66620326 </v>
   <v>       0.22222222       0.11111111       0.60000000 </v>
   <v>       0.11111111       0.55555556       0.33333333 </v>
   <v>       0.00000000       0.33333333       0.46666667 </v>
   <v>       0.22222222       0.44444444       0.40000000 </v>
   <v>       0.11111111       0.55555556       0.53333333 </v>
   <v>       0.33920688       0.34668524       0.66665285 </v>
   <v>       0.22222222       0.44444444       0.60000000 </v>
   <v>       0.11111111       0.88888889       0.33333333 </v>
   <v>       0.00000000       0.66666667       0.46666667 </v>
   <v>       0.22222222       0.77777778       0.40000000 </v>
   <v>       0.11111111       0.88888889       0.53333333 </v>
   <v>       0.33929956       0.65911864       0.66627937 </v>
   <v>       0.22222222       0.77777778       0.60000000 </v>
   <v>       0.44444444       0.22222222       0.33333333 </v>
   <v>       0.33333333       0.00000000       0.46666667 </v>
   <v>       0.55555556       0.11111111       0.40000000 </v>
   <v>       0.44444444       0.22222222       0.53333333 </v>
   <v>       0.67273859       0.01289157       0.66664684 </v>
   <v>       0.55555556       0.11111111       0.60000000 </v>
   <v>       0.44444444       0.55555556       0.33333333 </v>
   <v>       0.33333333       0.33333333       0.46666667 </v>
   <v>       0.55555556       0.44444444       0.40000000 </v>
   <v>       0.44444444       0.55555556       0.53333333 </v>
   <v>       0.67205266       0.32552965       0.66639136 </v>
   <v>       0.55555556       0.44444444       0.60000000 </v>
   <v>       0.44444444       0.88888889       0.33333333 </v>
   <v>       0.33333333       0.66666667       0.46666667 </v>
   <v>       0.55555556       0.77777778       0.40000000 </v>
   <v>       0.44444444       0.88888889       0.53333333 </v>
   <v>       0.65164456       0.65880636       0.66634429 </v>
   <v>       0.55555556       0.77777778       0.60000000 </v>
   <v>       0.77777778       0.22222222       0.33333333 </v>
   <v>       0.66666667       0.00000000       0.46666667 </v>
   <v>       0.88888889       0.11111111       0.40000000 </v>
   <v>       0.77777778       0.22222222       0.53333333 </v>
   <v>       0.00568109       0.99263610       0.66652971 </v>
   <v>       0.88888889       0.11111111       0.60000000 </v>
   <v>       0.77777778       0.55555556       0.33333333 </v>
   <v>       0.66666667       0.33333333       0.46666667 </v>
   <v>       0.88888889       0.44444444       0.40000000 </v>
   <v>       0.77777778       0.55555556       0.53333333 </v>
   <v>       0.98508921       0.32559064       0.66624259 </v>
   <v>       0.88888889       0.44444444       0.60000000 </v>
   <v>       0.77777778       0.88888889       0.33333333 </v>
   <v>       0.66666667       0.66666667       0.46666667 </v>
   <v>       0.88888889       0.77777778       0.40000000 </v>
   <v>       0.77777778       0.88888889       0.53333333 </v>
   <v>       0.00623081       0.67961068       0.66654681 </v>
   <v>       0.88888889       0.77777778       0.60000000 </v>
   <v>       0.44342937       0.88808038       0.69996575 </v>
   <v>       0.11078695       0.55452628       0.70003310 </v>
   <v>       0.77666301       0.55510146       0.69999923 </v>
   <v>       0.11007204       0.22221618       0.70022316 </v>
   <v>       0.77669758       0.88722890       0.70026016 </v>
   <v>       0.44245178       0.22083017       0.70018514 </v>
  </varray>
  <varray name="selective"  type="logical" >
   <v type="logical" >  F  F  F </v>
   <v type="logical" >  F  F  F </v>
   <v type="logical" >  F  F  F </v>
   <v type="logical" >  F  F  F </v>
   <v type="logical" >  T  T  T </v>
   <v type="logical" >  F  F  F </v>
   <v type="logical" >  F  F  F </v>
   <v type="logical" >  F  F  F </v>
   <v type="logical" >  F  F  F </v>
   <v type="logical" >  F  F  F </v>
   <v type="logical" >  T  T  T </v>
   <v type="logical" >  F  F  F </v>
   <v type="logical" >  F  F  F </v>
   <v type="logical" >  F  F  F </v>
   <v type="logical" >  F  F  F </v>
   <v type="logical" >  F  F  F </v>
   <v type="logical" >  T  T  T </v>
   <v type="logical" >  F  F  F </v>
   <v type="logical" >  F  F  F </v>
   <v type="logical" >  F  F  F </v>
   <v type="logical" >  F  F  F </v>
   <v type="logical" >  F  F  F </v>
   <v type="logical" >  T  T  T </v>
   <v type="logical" >  F  F  F </v>
   <v type="logical" >  F  F  F </v>
   <v type="logical" >  F  F  F </v>
   <v type="logical" >  F  F  F </v>
   <v type="logical" >  F  F  F </v>
   <v type="logical" >  T  T  T </v>
   <v type="logical" >  F  F  F </v>
   <v type="logical" >  F  F  F </v>
   <v type="logical" >  F  F  F </v>
   <v type="logical" >  F  F  F </v>
   <v type="logical" >  F  F  F </v>
   <v type="logical" >  T  T  T </v>
   <v type="logical" >  F  F  F </v>
   <v type="logical" >  F  F  F </v>
   <v type="logical" >  F  F  F </v>
   <v type="logical" >  F  F  F </v>
   <v type="logical" >  F  F  F </v>
   <v type="logical" >  T  T  T </v>
   <v type="logical" >  F  F  F </v>
   <v type="logical" >  F  F  F </v>
   <v type="logical" >  F  F  F </v>
   <v type="logical" >  F  F  F </v>
   <v type="logical" >  F  F  F </v>
   <v type="logical" >  T  T  T </v>
   <v type="logical" >  F  F  F </v>
   <v type="logical" >  F  F  F </v>
   <v type="logical" >  F  F  F </v>
   <v type="logical" >  F  F  F </v>
   <v type="logical" >  F  F  F </v>
   <v type="logical" >  T  T  T </v>
   <v type="logical" >  F  F  F </v>
   <v type="logical" >  T  T  T </v>
   <v type="logical" >  T  T  T </v>
   <v type="logical" >  T  T  T </v>
   <v type="logical" >  T  T  T </v>
   <v type="logical" >  T  T  T </v>
   <v type="logical" >  T  T  T </v>
  </varray>
  <nose>
   <v>      -3.00000000       0.00000000       0.00010000       0.00010000 </v>
  </nose>
 </structure>
</modeling>
